,formula,k_expt,k-units,k_condition,k_condition_units
786,TiC,30.0,Wm$^{-1}$K$^{-1}$,298,K
787,WC,40.0,Wm$^{-1}$K$^{-1}$,298,K
788,TiN,25.0,Wm$^{-1}$K$^{-1}$,373,K
789,BeO,300.0,Wm$^{-1}$K$^{-1}$,298,K
790,U2O,12.0,Wm$^{-1}$K$^{-1}$,298,K
791,Si,150.0,Wm$^{-1}$K$^{-1}$,298,K
792,ZrC,31.0,Wm$^{-1}$K$^{-1}$,773,K
793,Al6Si2O13,6.0,Wm$^{-1}$K$^{-1}$,373,K
794,SiC,110.0,Wm$^{-1}$K$^{-1}$,298,K
795,SiO2,6.5,Wm$^{-1}$K$^{-1}$,298,K
796,SiO2,11.0,Wm$^{-1}$K$^{-1}$,298,K
797,Al2O3,38.0,Wm$^{-1}$K$^{-1}$,298,K
798,ZrO2,1.8,Wm$^{-1}$K$^{-1}$,298,K
799,ThO2,14.0,Wm$^{-1}$K$^{-1}$,298,K
800,MgO,40.0,Wm$^{-1}$K$^{-1}$,298,K
801,CaO,8.7,Wm$^{-1}$K$^{-1}$,773,K
802,SiO2,1.7,Wm$^{-1}$K$^{-1}$,373,K
803,C,107.0,Wm$^{-1}$K$^{-1}$,373,K
804,MgAl2O4,15.0,Wm$^{-1}$K$^{-1}$,373,K
805,AlN,33.0,Wm$^{-1}$K$^{-1}$,373,K
806,TiB2,64.0,Wm$^{-1}$K$^{-1}$,773,K
807,B4C,25.0,Wm$^{-1}$K$^{-1}$,373,K
808,ZrB2,67.0,Wm$^{-1}$K$^{-1}$,773,K
809,Si3N4,28.0,Wm$^{-1}$K$^{-1}$,373,K
810,ZrSiO4,5.8,Wm$^{-1}$K$^{-1}$,373,K
811,TiO2,4.5,Wm$^{-1}$K$^{-1}$,773,K
812,TiC,32.0,Wm$^{-1}$K$^{-1}$,373,K
813,WC,45.0,Wm$^{-1}$K$^{-1}$,1273,K
814,TiN,27.0,Wm$^{-1}$K$^{-1}$,773,K
815,BeO,220.0,Wm$^{-1}$K$^{-1}$,373,K
816,U2O,8.0,Wm$^{-1}$K$^{-1}$,373,K
817,Si,110.0,Wm$^{-1}$K$^{-1}$,373,K
818,ZrC,35.0,Wm$^{-1}$K$^{-1}$,1273,K
819,Al6Si2O13,4.5,Wm$^{-1}$K$^{-1}$,773,K
820,SiC,90.0,Wm$^{-1}$K$^{-1}$,373,K
821,SiO2,5.0,Wm$^{-1}$K$^{-1}$,373,K
822,SiO2,8.3,Wm$^{-1}$K$^{-1}$,373,K
823,Al2O3,35.0,Wm$^{-1}$K$^{-1}$,373,K
824,ZrO2,1.8,Wm$^{-1}$K$^{-1}$,373,K
825,ThO2,12.0,Wm$^{-1}$K$^{-1}$,373,K
826,MgO,35.0,Wm$^{-1}$K$^{-1}$,373,K
827,CaO,7.8,Wm$^{-1}$K$^{-1}$,1273,K
828,SiO2,2.1,Wm$^{-1}$K$^{-1}$,773,K
829,C,76.0,Wm$^{-1}$K$^{-1}$,773,K
830,MgAl2O4,9.0,Wm$^{-1}$K$^{-1}$,773,K
831,AlN,23.0,Wm$^{-1}$K$^{-1}$,773,K
832,B4C,21.0,Wm$^{-1}$K$^{-1}$,773,K
833,Si3N4,21.0,Wm$^{-1}$K$^{-1}$,773,K
834,ZrSiO4,4.8,Wm$^{-1}$K$^{-1}$,773,K
835,TiO2,3.3,Wm$^{-1}$K$^{-1}$,1273,K
836,TiC,36.0,Wm$^{-1}$K$^{-1}$,773,K
837,WC,50.0,Wm$^{-1}$K$^{-1}$,1773,K
838,BeO,70.0,Wm$^{-1}$K$^{-1}$,773,K
839,U2O,4.5,Wm$^{-1}$K$^{-1}$,773,K
840,Si,45.0,Wm$^{-1}$K$^{-1}$,773,K
841,Al6Si2O13,4.0,Wm$^{-1}$K$^{-1}$,1273,K
842,SiC,65.0,Wm$^{-1}$K$^{-1}$,773,K
843,SiO2,3.6,Wm$^{-1}$K$^{-1}$,773,K
844,SiO2,5.0,Wm$^{-1}$K$^{-1}$,773,K
845,Al2O3,11.0,Wm$^{-1}$K$^{-1}$,773,K
846,ZrO2,2.0,Wm$^{-1}$K$^{-1}$,773,K
847,ThO2,6.0,Wm$^{-1}$K$^{-1}$,773,K
848,MgO,16.0,Wm$^{-1}$K$^{-1}$,773,K
849,SiO2,5.0,Wm$^{-1}$K$^{-1}$,1273,K
850,MgAl2O4,6.0,Wm$^{-1}$K$^{-1}$,1273,K
851,B4C,71.0,Wm$^{-1}$K$^{-1}$,1273,K
852,Si3N4,14.5,Wm$^{-1}$K$^{-1}$,1273,K
853,ZrSiO4,4.2,Wm$^{-1}$K$^{-1}$,1273,K
854,TiC,40.0,Wm$^{-1}$K$^{-1}$,1273,K
855,BeO,18.0,Wm$^{-1}$K$^{-1}$,1273,K
856,U2O,3.2,Wm$^{-1}$K$^{-1}$,1273,K
857,Si,26.0,Wm$^{-1}$K$^{-1}$,1273,K
858,SiC,45.0,Wm$^{-1}$K$^{-1}$,1273,K
859,Al2O3,7.0,Wm$^{-1}$K$^{-1}$,1273,K
860,ZrO2,2.2,Wm$^{-1}$K$^{-1}$,1273,K
861,ThO2,2.0,Wm$^{-1}$K$^{-1}$,1273,K
862,MgO,7.0,Wm$^{-1}$K$^{-1}$,1273,K
863,B4C,15.0,Wm$^{-1}$K$^{-1}$,1773,K
864,Si3N4,13.0,Wm$^{-1}$K$^{-1}$,1773,K
865,TiC,45.0,Wm$^{-1}$K$^{-1}$,1773,K
866,BeO,14.0,Wm$^{-1}$K$^{-1}$,1773,K
867,SiC,40.0,Wm$^{-1}$K$^{-1}$,1773,K
868,Al2O3,6.0,Wm$^{-1}$K$^{-1}$,1773,K
869,ZrO2,2.4,Wm$^{-1}$K$^{-1}$,1773,K
870,ThO2,2.0,Wm$^{-1}$K$^{-1}$,1773,K
871,MgO,6.5,Wm$^{-1}$K$^{-1}$,1773,K