,formula,expt_form_e,uncertainty,phaseinfo,reference,likely_mpid
2013,ErAu,-0.9349,0.0207,Pm-3m,"Kim, G., Meschel, S., Nash, P. et al. Experimental formation enthalpies for intermetallic phases and other inorganic compounds. Sci Data 4, 170162 (2017). https://doi.org/10.1038/sdata.2017.162",mp-2442
2014,TmAu,-0.9618,0.0197,,"Kim, G., Meschel, S., Nash, P. et al. Experimental formation enthalpies for intermetallic phases and other inorganic compounds. Sci Data 4, 170162 (2017). https://doi.org/10.1038/sdata.2017.162",mp-1017507
2015,TbAu2,-0.8416,0.0135,I4/mmm,"Kim, G., Meschel, S., Nash, P. et al. Experimental formation enthalpies for intermetallic phases and other inorganic compounds. Sci Data 4, 170162 (2017). https://doi.org/10.1038/sdata.2017.162",mp-570179
2016,DyAu2,-0.8063,0.0197,I4/mmm,"Kim, G., Meschel, S., Nash, P. et al. Experimental formation enthalpies for intermetallic phases and other inorganic compounds. Sci Data 4, 170162 (2017). https://doi.org/10.1038/sdata.2017.162",mp-11241
2017,HoAu2,-0.8768,0.0145,I4/mmm,"Kim, G., Meschel, S., Nash, P. et al. Experimental formation enthalpies for intermetallic phases and other inorganic compounds. Sci Data 4, 170162 (2017). https://doi.org/10.1038/sdata.2017.162",mp-990
2018,ErAu2,-0.8903,0.0197,I4/mmm,"Kim, G., Meschel, S., Nash, P. et al. Experimental formation enthalpies for intermetallic phases and other inorganic compounds. Sci Data 4, 170162 (2017). https://doi.org/10.1038/sdata.2017.162",mp-2466
2019,TmAu2,-0.9494,0.0249,I4/mmm,"Kim, G., Meschel, S., Nash, P. et al. Experimental formation enthalpies for intermetallic phases and other inorganic compounds. Sci Data 4, 170162 (2017). https://doi.org/10.1038/sdata.2017.162",mp-560
2020,LuAu2,-0.9442,0.0269,I4/mmm,"Kim, G., Meschel, S., Nash, P. et al. Experimental formation enthalpies for intermetallic phases and other inorganic compounds. Sci Data 4, 170162 (2017). https://doi.org/10.1038/sdata.2017.162",mp-1018152
2021,TbAu3,-0.6892,0.0176,Pmmn,"Kim, G., Meschel, S., Nash, P. et al. Experimental formation enthalpies for intermetallic phases and other inorganic compounds. Sci Data 4, 170162 (2017). https://doi.org/10.1038/sdata.2017.162",mp-1025478
2022,DyAu3,-0.6664,0.0166,,"Kim, G., Meschel, S., Nash, P. et al. Experimental formation enthalpies for intermetallic phases and other inorganic compounds. Sci Data 4, 170162 (2017). https://doi.org/10.1038/sdata.2017.162",mp-1080590
2023,HoAu3,-0.6954,0.0218,Pmmn,"Kim, G., Meschel, S., Nash, P. et al. Experimental formation enthalpies for intermetallic phases and other inorganic compounds. Sci Data 4, 170162 (2017). https://doi.org/10.1038/sdata.2017.162",mp-30386
2024,ErAu3,-0.6851,0.0197,,"Kim, G., Meschel, S., Nash, P. et al. Experimental formation enthalpies for intermetallic phases and other inorganic compounds. Sci Data 4, 170162 (2017). https://doi.org/10.1038/sdata.2017.162",mp-1080756
2025,TmAu3,-0.7535,0.0218,Pmmn,"Kim, G., Meschel, S., Nash, P. et al. Experimental formation enthalpies for intermetallic phases and other inorganic compounds. Sci Data 4, 170162 (2017). https://doi.org/10.1038/sdata.2017.162",mp-568247
2026,La43Au157,-0.6001,0.0197,P6/m,"Kim, G., Meschel, S., Nash, P. et al. Experimental formation enthalpies for intermetallic phases and other inorganic compounds. Sci Data 4, 170162 (2017). https://doi.org/10.1038/sdata.2017.162",
2027,SmCu,-0.1285,0.0197,Pm-3m,"Kim, G., Meschel, S., Nash, P. et al. Experimental formation enthalpies for intermetallic phases and other inorganic compounds. Sci Data 4, 170162 (2017). https://doi.org/10.1038/sdata.2017.162",mp-12586
2028,SmCu2,-0.1731,0.0218,Imma,"Kim, G., Meschel, S., Nash, P. et al. Experimental formation enthalpies for intermetallic phases and other inorganic compounds. Sci Data 4, 170162 (2017). https://doi.org/10.1038/sdata.2017.162",mp-1077154
2029,Sm143Cu857,-0.142,0.0155,Pnma,"Kim, G., Meschel, S., Nash, P. et al. Experimental formation enthalpies for intermetallic phases and other inorganic compounds. Sci Data 4, 170162 (2017). https://doi.org/10.1038/sdata.2017.162",
2030,SmAg,-0.3835,0.028,Pnma,"Kim, G., Meschel, S., Nash, P. et al. Experimental formation enthalpies for intermetallic phases and other inorganic compounds. Sci Data 4, 170162 (2017). https://doi.org/10.1038/sdata.2017.162",mp-2475
2031,SmAg2,-0.2498,0.0249,,"Kim, G., Meschel, S., Nash, P. et al. Experimental formation enthalpies for intermetallic phases and other inorganic compounds. Sci Data 4, 170162 (2017). https://doi.org/10.1038/sdata.2017.162",
2032,Sm43Ag157,-0.1741,0.0363,P6/m,"Kim, G., Meschel, S., Nash, P. et al. Experimental formation enthalpies for intermetallic phases and other inorganic compounds. Sci Data 4, 170162 (2017). https://doi.org/10.1038/sdata.2017.162",
2033,SmAu,-0.7908,0.0207,,"Kim, G., Meschel, S., Nash, P. et al. Experimental formation enthalpies for intermetallic phases and other inorganic compounds. Sci Data 4, 170162 (2017). https://doi.org/10.1038/sdata.2017.162",mp-1079811
2034,SmAu2,-0.7991,0.0135,P4/nmm,"Kim, G., Meschel, S., Nash, P. et al. Experimental formation enthalpies for intermetallic phases and other inorganic compounds. Sci Data 4, 170162 (2017). https://doi.org/10.1038/sdata.2017.162",
2035,Sm43Au157,-0.6198,0.0238,P6/m,"Kim, G., Meschel, S., Nash, P. et al. Experimental formation enthalpies for intermetallic phases and other inorganic compounds. Sci Data 4, 170162 (2017). https://doi.org/10.1038/sdata.2017.162",
2036,TbAg,-0.3783,0.0301,Pm-3m,"Kim, G., Meschel, S., Nash, P. et al. Experimental formation enthalpies for intermetallic phases and other inorganic compounds. Sci Data 4, 170162 (2017). https://doi.org/10.1038/sdata.2017.162",mp-2268
2037,DyAg,-0.3866,0.0187,Pm-3m,"Kim, G., Meschel, S., Nash, P. et al. Experimental formation enthalpies for intermetallic phases and other inorganic compounds. Sci Data 4, 170162 (2017). https://doi.org/10.1038/sdata.2017.162",mp-2167
2038,ErAg,-0.4654,0.0332,Pm-3m,"Kim, G., Meschel, S., Nash, P. et al. Experimental formation enthalpies for intermetallic phases and other inorganic compounds. Sci Data 4, 170162 (2017). https://doi.org/10.1038/sdata.2017.162",mp-2621
2039,TmAg,-0.4457,0.0238,Pm-3m,"Kim, G., Meschel, S., Nash, P. et al. Experimental formation enthalpies for intermetallic phases and other inorganic compounds. Sci Data 4, 170162 (2017). https://doi.org/10.1038/sdata.2017.162",mp-2796
2040,PrAg2,-0.256,0.0166,Imma,"Kim, G., Meschel, S., Nash, P. et al. Experimental formation enthalpies for intermetallic phases and other inorganic compounds. Sci Data 4, 170162 (2017). https://doi.org/10.1038/sdata.2017.162",mp-1072619
2041,NdAg2,-0.2259,0.0197,Imma,"Kim, G., Meschel, S., Nash, P. et al. Experimental formation enthalpies for intermetallic phases and other inorganic compounds. Sci Data 4, 170162 (2017). https://doi.org/10.1038/sdata.2017.162",mp-1072737
2042,GdAg2,-0.2477,0.0166,,"Kim, G., Meschel, S., Nash, P. et al. Experimental formation enthalpies for intermetallic phases and other inorganic compounds. Sci Data 4, 170162 (2017). https://doi.org/10.1038/sdata.2017.162",mp-19783
2043,TbAg2,-0.2353,0.0187,,"Kim, G., Meschel, S., Nash, P. et al. Experimental formation enthalpies for intermetallic phases and other inorganic compounds. Sci Data 4, 170162 (2017). https://doi.org/10.1038/sdata.2017.162",mp-30358
2044,DyAg2,-0.2311,0.0238,,"Kim, G., Meschel, S., Nash, P. et al. Experimental formation enthalpies for intermetallic phases and other inorganic compounds. Sci Data 4, 170162 (2017). https://doi.org/10.1038/sdata.2017.162",mp-2618
2045,HoAg2,-0.2591,0.0238,,"Kim, G., Meschel, S., Nash, P. et al. Experimental formation enthalpies for intermetallic phases and other inorganic compounds. Sci Data 4, 170162 (2017). https://doi.org/10.1038/sdata.2017.162",mp-2120
2046,ErAg2,-0.2487,0.0238,I4/mmm,"Kim, G., Meschel, S., Nash, P. et al. Experimental formation enthalpies for intermetallic phases and other inorganic compounds. Sci Data 4, 170162 (2017). https://doi.org/10.1038/sdata.2017.162",mp-30339
2048,TmAg2,-0.2622,0.0249,Imma,"Kim, G., Meschel, S., Nash, P. et al. Experimental formation enthalpies for intermetallic phases and other inorganic compounds. Sci Data 4, 170162 (2017). https://doi.org/10.1038/sdata.2017.162",mp-30359
2049,LuAg2,-0.2653,0.0197,I4/mmm,"Kim, G., Meschel, S., Nash, P. et al. Experimental formation enthalpies for intermetallic phases and other inorganic compounds. Sci Data 4, 170162 (2017). https://doi.org/10.1038/sdata.2017.162",mp-1018131
2050,TbAg3,-0.2135,0.0207,P6/m,"Kim, G., Meschel, S., Nash, P. et al. Experimental formation enthalpies for intermetallic phases and other inorganic compounds. Sci Data 4, 170162 (2017). https://doi.org/10.1038/sdata.2017.162",
2051,DyAg3,-0.2363,0.0197,P6/m,"Kim, G., Meschel, S., Nash, P. et al. Experimental formation enthalpies for intermetallic phases and other inorganic compounds. Sci Data 4, 170162 (2017). https://doi.org/10.1038/sdata.2017.162",
2052,HoAg3,-0.2601,0.0207,P6/m,"Kim, G., Meschel, S., Nash, P. et al. Experimental formation enthalpies for intermetallic phases and other inorganic compounds. Sci Data 4, 170162 (2017). https://doi.org/10.1038/sdata.2017.162",
2053,ErAg3,-0.2633,0.0238,P6/m,"Kim, G., Meschel, S., Nash, P. et al. Experimental formation enthalpies for intermetallic phases and other inorganic compounds. Sci Data 4, 170162 (2017). https://doi.org/10.1038/sdata.2017.162",
2054,TmAg3,-0.2094,0.0238,Pnma,"Kim, G., Meschel, S., Nash, P. et al. Experimental formation enthalpies for intermetallic phases and other inorganic compounds. Sci Data 4, 170162 (2017). https://doi.org/10.1038/sdata.2017.162",mp-30360
2055,Al5Ni4Rh,-0.7684,0.0341,Pm-3m,"Kim, G., Meschel, S., Nash, P. et al. Experimental formation enthalpies for intermetallic phases and other inorganic compounds. Sci Data 4, 170162 (2017). https://doi.org/10.1038/sdata.2017.162",
2056,Al5Ni3Rh2,-0.8019,0.0256,Pm-3m,"Kim, G., Meschel, S., Nash, P. et al. Experimental formation enthalpies for intermetallic phases and other inorganic compounds. Sci Data 4, 170162 (2017). https://doi.org/10.1038/sdata.2017.162",
2057,Al5Ni2Rh3,-0.8439,0.035,Pm-3m,"Kim, G., Meschel, S., Nash, P. et al. Experimental formation enthalpies for intermetallic phases and other inorganic compounds. Sci Data 4, 170162 (2017). https://doi.org/10.1038/sdata.2017.162",
2058,Al5NiRh4,-1.0331,0.0342,Pm-3m,"Kim, G., Meschel, S., Nash, P. et al. Experimental formation enthalpies for intermetallic phases and other inorganic compounds. Sci Data 4, 170162 (2017). https://doi.org/10.1038/sdata.2017.162",
2059,Ti5Ge3,-0.7333,0.0247,P6_3/mcm,"Kim, G., Meschel, S., Nash, P. et al. Experimental formation enthalpies for intermetallic phases and other inorganic compounds. Sci Data 4, 170162 (2017). https://doi.org/10.1038/sdata.2017.162",mp-568151
2060,V5Ge3,-0.4586,0.0487,I4/mcm,"Kim, G., Meschel, S., Nash, P. et al. Experimental formation enthalpies for intermetallic phases and other inorganic compounds. Sci Data 4, 170162 (2017). https://doi.org/10.1038/sdata.2017.162",mp-1105285
2061,Mn5Ge3,-0.1884,0.007,P6_3/mcm,"Kim, G., Meschel, S., Nash, P. et al. Experimental formation enthalpies for intermetallic phases and other inorganic compounds. Sci Data 4, 170162 (2017). https://doi.org/10.1038/sdata.2017.162",mp-617291
2062,Fe5Ge3,-0.1078,0.0082,P6_3/mmc,"Kim, G., Meschel, S., Nash, P. et al. Experimental formation enthalpies for intermetallic phases and other inorganic compounds. Sci Data 4, 170162 (2017). https://doi.org/10.1038/sdata.2017.162",
2063,Co5Ge3,-0.2029,0.0062,P6_3/mmc,"Kim, G., Meschel, S., Nash, P. et al. Experimental formation enthalpies for intermetallic phases and other inorganic compounds. Sci Data 4, 170162 (2017). https://doi.org/10.1038/sdata.2017.162",
2064,Ni5Ge3,-0.3222,0.0065,P6_3/mmc,"Kim, G., Meschel, S., Nash, P. et al. Experimental formation enthalpies for intermetallic phases and other inorganic compounds. Sci Data 4, 170162 (2017). https://doi.org/10.1038/sdata.2017.162",mp-1106111
2065,Ti5Al2Zn13,-0.2798,0.0065,Pm-3m,"Kim, G., Meschel, S., Nash, P. et al. Experimental formation enthalpies for intermetallic phases and other inorganic compounds. Sci Data 4, 170162 (2017). https://doi.org/10.1038/sdata.2017.162",
2066,Ti5Al4Zn11,-0.3109,0.0065,Pm-3m,"Kim, G., Meschel, S., Nash, P. et al. Experimental formation enthalpies for intermetallic phases and other inorganic compounds. Sci Data 4, 170162 (2017). https://doi.org/10.1038/sdata.2017.162",
2067,Ti5(Al2Zn3)3,-0.3317,0.0065,Pm-3m,"Kim, G., Meschel, S., Nash, P. et al. Experimental formation enthalpies for intermetallic phases and other inorganic compounds. Sci Data 4, 170162 (2017). https://doi.org/10.1038/sdata.2017.162",
2068,Ti5Al8Zn7,-0.3524,0.0065,Pm-3m,"Kim, G., Meschel, S., Nash, P. et al. Experimental formation enthalpies for intermetallic phases and other inorganic compounds. Sci Data 4, 170162 (2017). https://doi.org/10.1038/sdata.2017.162",
2069,TiAl2Zn,-0.3627,0.0065,Pm-3m,"Kim, G., Meschel, S., Nash, P. et al. Experimental formation enthalpies for intermetallic phases and other inorganic compounds. Sci Data 4, 170162 (2017). https://doi.org/10.1038/sdata.2017.162",
2070,Ti5(Al4Zn)3,-0.3731,0.0065,Pm-3m,"Kim, G., Meschel, S., Nash, P. et al. Experimental formation enthalpies for intermetallic phases and other inorganic compounds. Sci Data 4, 170162 (2017). https://doi.org/10.1038/sdata.2017.162",
2071,In49Pd51,-0.7151,0.0065,Pm-3m,"Kim, G., Meschel, S., Nash, P. et al. Experimental formation enthalpies for intermetallic phases and other inorganic compounds. Sci Data 4, 170162 (2017). https://doi.org/10.1038/sdata.2017.162",
2072,In3Pd2,-0.5908,0.0065,P-3m1,"Kim, G., Meschel, S., Nash, P. et al. Experimental formation enthalpies for intermetallic phases and other inorganic compounds. Sci Data 4, 170162 (2017). https://doi.org/10.1038/sdata.2017.162",mp-510437
2073,Sn2Pd,-0.5182,0.0065,I41/acd,"Kim, G., Meschel, S., Nash, P. et al. Experimental formation enthalpies for intermetallic phases and other inorganic compounds. Sci Data 4, 170162 (2017). https://doi.org/10.1038/sdata.2017.162",mp-1573
2074,Mg39Ag61,-0.041,0.0009,Pm-3m,"Kim, G., Meschel, S., Nash, P. et al. Experimental formation enthalpies for intermetallic phases and other inorganic compounds. Sci Data 4, 170162 (2017). https://doi.org/10.1038/sdata.2017.162",
2075,Mg439Ag561,-0.0438,0.0002,Pm-3m,"Kim, G., Meschel, S., Nash, P. et al. Experimental formation enthalpies for intermetallic phases and other inorganic compounds. Sci Data 4, 170162 (2017). https://doi.org/10.1038/sdata.2017.162",
2076,Mg229Ag271,-0.0449,0.0002,Pm-3m,"Kim, G., Meschel, S., Nash, P. et al. Experimental formation enthalpies for intermetallic phases and other inorganic compounds. Sci Data 4, 170162 (2017). https://doi.org/10.1038/sdata.2017.162",
2077,Mg49Ag51,-0.0455,0.0002,Pm-3m,"Kim, G., Meschel, S., Nash, P. et al. Experimental formation enthalpies for intermetallic phases and other inorganic compounds. Sci Data 4, 170162 (2017). https://doi.org/10.1038/sdata.2017.162",
2078,Mg503Ag497,-0.0453,0.0003,Pm-3m,"Kim, G., Meschel, S., Nash, P. et al. Experimental formation enthalpies for intermetallic phases and other inorganic compounds. Sci Data 4, 170162 (2017). https://doi.org/10.1038/sdata.2017.162",
2079,Mg103Ag97,-0.0455,0.0003,Pm-3m,"Kim, G., Meschel, S., Nash, P. et al. Experimental formation enthalpies for intermetallic phases and other inorganic compounds. Sci Data 4, 170162 (2017). https://doi.org/10.1038/sdata.2017.162",
2080,Mg13Ag12,-0.0452,0.0001,Pm-3m,"Kim, G., Meschel, S., Nash, P. et al. Experimental formation enthalpies for intermetallic phases and other inorganic compounds. Sci Data 4, 170162 (2017). https://doi.org/10.1038/sdata.2017.162",
2081,Mg137Ag113,-0.0444,0.0002,Pm-3m,"Kim, G., Meschel, S., Nash, P. et al. Experimental formation enthalpies for intermetallic phases and other inorganic compounds. Sci Data 4, 170162 (2017). https://doi.org/10.1038/sdata.2017.162",
2082,Al3FeSi2,-0.2123,0.0124,I4/mcm,"Kim, G., Meschel, S., Nash, P. et al. Experimental formation enthalpies for intermetallic phases and other inorganic compounds. Sci Data 4, 170162 (2017). https://doi.org/10.1038/sdata.2017.162",mp-505229
2083,Al2Fe3Si4,-0.3716,0.0187,Cmcm,"Kim, G., Meschel, S., Nash, P. et al. Experimental formation enthalpies for intermetallic phases and other inorganic compounds. Sci Data 4, 170162 (2017). https://doi.org/10.1038/sdata.2017.162",mp-29111
2084,Al71Fe19Si10,-0.255,0.0137,P6_3/mmc,"Kim, G., Meschel, S., Nash, P. et al. Experimental formation enthalpies for intermetallic phases and other inorganic compounds. Sci Data 4, 170162 (2017). https://doi.org/10.1038/sdata.2017.162",
2085,Mn1538Al7949Ni513,-0.2398,0.0139,Cmcm,"Kim, G., Meschel, S., Nash, P. et al. Experimental formation enthalpies for intermetallic phases and other inorganic compounds. Sci Data 4, 170162 (2017). https://doi.org/10.1038/sdata.2017.162",
2087,Sc5Sn3,-0.7276,0.0187,P6_3/mcm,"Kim, G., Meschel, S., Nash, P. et al. Experimental formation enthalpies for intermetallic phases and other inorganic compounds. Sci Data 4, 170162 (2017). https://doi.org/10.1038/sdata.2017.162",mp-17695
2088,Ti11Sn9,-0.4498,0.0145,Immm,"Kim, G., Meschel, S., Nash, P. et al. Experimental formation enthalpies for intermetallic phases and other inorganic compounds. Sci Data 4, 170162 (2017). https://doi.org/10.1038/sdata.2017.162",
2089,V3Sn,-0.2249,0.0145,Pm-3n,"Kim, G., Meschel, S., Nash, P. et al. Experimental formation enthalpies for intermetallic phases and other inorganic compounds. Sci Data 4, 170162 (2017). https://doi.org/10.1038/sdata.2017.162",mp-21342
2090,Y5Sn3,-0.7545,0.0301,P6_3/mcm,"Kim, G., Meschel, S., Nash, P. et al. Experimental formation enthalpies for intermetallic phases and other inorganic compounds. Sci Data 4, 170162 (2017). https://doi.org/10.1038/sdata.2017.162",mp-567412
2091,Zr5Sn3,-0.7379,0.0259,P6_3/mcm,"Kim, G., Meschel, S., Nash, P. et al. Experimental formation enthalpies for intermetallic phases and other inorganic compounds. Sci Data 4, 170162 (2017). https://doi.org/10.1038/sdata.2017.162",mp-510522
2092,Nb3Sn,-0.1575,0.0238,Pm-3n,"Kim, G., Meschel, S., Nash, P. et al. Experimental formation enthalpies for intermetallic phases and other inorganic compounds. Sci Data 4, 170162 (2017). https://doi.org/10.1038/sdata.2017.162",mp-1326
2093,Sn7Ru3,-0.1938,0.0145,Im-3m,"Kim, G., Meschel, S., Nash, P. et al. Experimental formation enthalpies for intermetallic phases and other inorganic compounds. Sci Data 4, 170162 (2017). https://doi.org/10.1038/sdata.2017.162",mp-22344
2094,Sn2Rh,-0.4363,0.0249,I4/mcm,"Kim, G., Meschel, S., Nash, P. et al. Experimental formation enthalpies for intermetallic phases and other inorganic compounds. Sci Data 4, 170162 (2017). https://doi.org/10.1038/sdata.2017.162",mp-565
2095,SnPd3,-0.5991,0.0197,Pm-3m,"Kim, G., Meschel, S., Nash, P. et al. Experimental formation enthalpies for intermetallic phases and other inorganic compounds. Sci Data 4, 170162 (2017). https://doi.org/10.1038/sdata.2017.162",mp-718
2096,Hf5Sn3,-0.5099,0.0218,P6_3/mcm,"Kim, G., Meschel, S., Nash, P. et al. Experimental formation enthalpies for intermetallic phases and other inorganic compounds. Sci Data 4, 170162 (2017). https://doi.org/10.1038/sdata.2017.162",mp-21104
2097,Sn29Ir21,-0.1555,0.0197,I4mm,"Kim, G., Meschel, S., Nash, P. et al. Experimental formation enthalpies for intermetallic phases and other inorganic compounds. Sci Data 4, 170162 (2017). https://doi.org/10.1038/sdata.2017.162",
2098,Sn2Ir,-0.1337,0.0166,Fm-3m,"Kim, G., Meschel, S., Nash, P. et al. Experimental formation enthalpies for intermetallic phases and other inorganic compounds. Sci Data 4, 170162 (2017). https://doi.org/10.1038/sdata.2017.162",mp-2083