,formula,expt_form_e,uncertainty,phaseinfo,reference,likely_mpid
1093,Tl2SO4,-1.3824455111502847,0.001184487960715677,orth,"O. Kubaschewski, C. Alcock, P. Spencer, Materials Thermochemistry, 6th ed., Oxford, Pergamom Press, 1993.",mp-4112
1094,Tl2Te,-0.2774169511326175,0.01865568538127191,cryst,"O. Kubaschewski, C. Alcock, P. Spencer, Materials Thermochemistry, 6th ed., Oxford, Pergamom Press, 1993.",mp-582753
1095,TlBr,-0.8949546848182386,0.00414570786250487,cubic,"O. Kubaschewski, C. Alcock, P. Spencer, Materials Thermochemistry, 6th ed., Oxford, Pergamom Press, 1993.",mp-568560
1096,TlCl,-1.0581919319043678,0.008809629207822847,cubic,"O. Kubaschewski, C. Alcock, P. Spencer, Materials Thermochemistry, 6th ed., Oxford, Pergamom Press, 1993.",mp-569639
1097,TlF,-1.6867848865566688,0.023837820209402998,rhomb,"O. Kubaschewski, C. Alcock, P. Spencer, Materials Thermochemistry, 6th ed., Oxford, Pergamom Press, 1993.",mp-720
1098,TlI,-0.6410300782398155,0.006736775276570413,rhomb,"O. Kubaschewski, C. Alcock, P. Spencer, Materials Thermochemistry, 6th ed., Oxford, Pergamom Press, 1993.",mp-571102
1099,TlSe,-0.3166284379988094,0.005182134828131087,tetrag,"O. Kubaschewski, C. Alcock, P. Spencer, Materials Thermochemistry, 6th ed., Oxford, Pergamom Press, 1993.",mp-1836
1100,Tm2O3,-3.9149992199564734,0.012229838194389366,cubic,"O. Kubaschewski, C. Alcock, P. Spencer, Materials Thermochemistry, 6th ed., Oxford, Pergamom Press, 1993.",mp-1767
1101,TmCl3,-2.5607519253209765,0.006477668535163858,monocl,"O. Kubaschewski, C. Alcock, P. Spencer, Materials Thermochemistry, 6th ed., Oxford, Pergamom Press, 1993.",mp-28044
1102,TmF3,-4.390563733134063,,orth,"O. Kubaschewski, C. Alcock, P. Spencer, Materials Thermochemistry, 6th ed., Oxford, Pergamom Press, 1993.",
1103,U2C3,-0.37643027391544215,0.015546404484393261,cubic,"O. Kubaschewski, C. Alcock, P. Spencer, Materials Thermochemistry, 6th ed., Oxford, Pergamom Press, 1993.",mp-2625
1104,U3O8,-3.3681991970187295,0.0023555158309686757,orth,"O. Kubaschewski, C. Alcock, P. Spencer, Materials Thermochemistry, 6th ed., Oxford, Pergamom Press, 1993.",mp-308
1105,U3Si,-0.34901678067462866,0.043270825814894574,tetrag,"O. Kubaschewski, C. Alcock, P. Spencer, Materials Thermochemistry, 6th ed., Oxford, Pergamom Press, 1993.",mp-956
1106,U3Si2,-0.35383616606479057,0.013058979766890338,tetrag,"O. Kubaschewski, C. Alcock, P. Spencer, Materials Thermochemistry, 6th ed., Oxford, Pergamom Press, 1993.",mp-21346
1107,UAl2,-0.3409844716910255,0.01865568538127191,cubic,"O. Kubaschewski, C. Alcock, P. Spencer, Materials Thermochemistry, 6th ed., Oxford, Pergamom Press, 1993.",mp-569744
1108,UAl3,-0.2958998986862851,0.043270825814894574,cubic,"O. Kubaschewski, C. Alcock, P. Spencer, Materials Thermochemistry, 6th ed., Oxford, Pergamom Press, 1993.",mp-1723
1109,UAl4,-0.27050743802844274,0.03461666065191566,tetrag,"O. Kubaschewski, C. Alcock, P. Spencer, Materials Thermochemistry, 6th ed., Oxford, Pergamom Press, 1993.",mp-574122
1110,UAs2,-0.8671438945739353,0.04352993255630113,tetrag,"O. Kubaschewski, C. Alcock, P. Spencer, Materials Thermochemistry, 6th ed., Oxford, Pergamom Press, 1993.",mp-1657
1111,UB12,-0.3452099047047324,,tetrag,"O. Kubaschewski, C. Alcock, P. Spencer, Materials Thermochemistry, 6th ed., Oxford, Pergamom Press, 1993.",mp-22319
1112,UB2,-0.5102675427433077,0.04352993255630113,hex,"O. Kubaschewski, C. Alcock, P. Spencer, Materials Thermochemistry, 6th ed., Oxford, Pergamom Press, 1993.",mp-1514
1113,UB4,-0.509092925515598,0.04332264716317588,tetrag,"O. Kubaschewski, C. Alcock, P. Spencer, Materials Thermochemistry, 6th ed., Oxford, Pergamom Press, 1993.",mp-619
1114,UBr4,-1.662636138257578,0.021764966278150565,monocl,"O. Kubaschewski, C. Alcock, P. Spencer, Materials Thermochemistry, 6th ed., Oxford, Pergamom Press, 1993.",mp-27153
1115,UC,-0.5052581457427809,0.01969211234689813,cubic,"O. Kubaschewski, C. Alcock, P. Spencer, Materials Thermochemistry, 6th ed., Oxford, Pergamom Press, 1993.",mp-2489
1116,UC2,-0.30505500354931664,0.017273782760436954,tetrag,"O. Kubaschewski, C. Alcock, P. Spencer, Materials Thermochemistry, 6th ed., Oxford, Pergamom Press, 1993.",mp-2486
1117,UCl3,-2.2332410041830917,0.008550522466416292,hex,"O. Kubaschewski, C. Alcock, P. Spencer, Materials Thermochemistry, 6th ed., Oxford, Pergamom Press, 1993.",mp-23208
1118,UCl4,-2.1118235851599803,0.004352993255630113,tetrag,"O. Kubaschewski, C. Alcock, P. Spencer, Materials Thermochemistry, 6th ed., Oxford, Pergamom Press, 1993.",mp-23235
1119,UCl5,-1.7988917366719048,0.003627494379691761,monocl,"O. Kubaschewski, C. Alcock, P. Spencer, Materials Thermochemistry, 6th ed., Oxford, Pergamom Press, 1993.",mp-27240
1120,UCl6,-1.5815875495456078,0.0031092808968786524,hex,"O. Kubaschewski, C. Alcock, P. Spencer, Materials Thermochemistry, 6th ed., Oxford, Pergamom Press, 1993.",mp-23250
1121,UF3,-3.90499769973818,0.009846056173449065,hex,"O. Kubaschewski, C. Alcock, P. Spencer, Materials Thermochemistry, 6th ed., Oxford, Pergamom Press, 1993.",mp-18299
1122,UF4,-3.9790504064321737,0.0095351280837612,monocl,"O. Kubaschewski, C. Alcock, P. Spencer, Materials Thermochemistry, 6th ed., Oxford, Pergamom Press, 1993.",mp-287
1123,UF5,-3.579646001445351,0.008636891380218477,tetrag,"O. Kubaschewski, C. Alcock, P. Spencer, Materials Thermochemistry, 6th ed., Oxford, Pergamom Press, 1993.",mp-1852
1124,UF6,-3.254232611071233,0.004886012837952167,orth,"O. Kubaschewski, C. Alcock, P. Spencer, Materials Thermochemistry, 6th ed., Oxford, Pergamom Press, 1993.",mp-2275
1125,UFe2,-0.111243160977214,0.004491183517713608,cubic,"O. Kubaschewski, C. Alcock, P. Spencer, Materials Thermochemistry, 6th ed., Oxford, Pergamom Press, 1993.",mp-21050
1126,UH3,-0.329065561586324,0.0010364269656262175,cubic,"O. Kubaschewski, C. Alcock, P. Spencer, Materials Thermochemistry, 6th ed., Oxford, Pergamom Press, 1993.",mp-504970
1127,UI4,-1.0579846465112426,0.01741197302252045,cryst,"O. Kubaschewski, C. Alcock, P. Spencer, Materials Thermochemistry, 6th ed., Oxford, Pergamom Press, 1993.",mp-655360
1128,UN,-1.5266569203674183,0.025910674140655433,cubic,"O. Kubaschewski, C. Alcock, P. Spencer, Materials Thermochemistry, 6th ed., Oxford, Pergamom Press, 1993.",mp-1865
1129,UO2,-3.7484108590148195,,cubic,"O. Kubaschewski, C. Alcock, P. Spencer, Materials Thermochemistry, 6th ed., Oxford, Pergamom Press, 1993.",mp-1597
1130,UO3,-3.170948301333412,0.0033683876382852064,monocl,"O. Kubaschewski, C. Alcock, P. Spencer, Materials Thermochemistry, 6th ed., Oxford, Pergamom Press, 1993.",mp-375
1131,UP,-1.3592739654187842,0.06529489883445169,cubic,"O. Kubaschewski, C. Alcock, P. Spencer, Materials Thermochemistry, 6th ed., Oxford, Pergamom Press, 1993.",mp-2011
1132,US,-1.6479188753456857,0.03472030334847828,cubic,"O. Kubaschewski, C. Alcock, P. Spencer, Materials Thermochemistry, 6th ed., Oxford, Pergamom Press, 1993.",mp-2423
1133,US2,-1.818238373363594,0.021764966278150565,hex,"O. Kubaschewski, C. Alcock, P. Spencer, Materials Thermochemistry, 6th ed., Oxford, Pergamom Press, 1993.",mp-2849
1134,US3,-1.4201640496493244,0.0868007583711957,monocl,"O. Kubaschewski, C. Alcock, P. Spencer, Materials Thermochemistry, 6th ed., Oxford, Pergamom Press, 1993.",mp-12406
1135,USe,-1.4287145721157406,0.07565916849071387,cubic,"O. Kubaschewski, C. Alcock, P. Spencer, Materials Thermochemistry, 6th ed., Oxford, Pergamom Press, 1993.",mp-2143
1136,USi,-0.433744685114572,0.021764966278150565,cubic,"O. Kubaschewski, C. Alcock, P. Spencer, Materials Thermochemistry, 6th ed., Oxford, Pergamom Press, 1993.",mp-19715
1137,USi2,-0.4480819248057346,0.008636891380218477,tetrag,"O. Kubaschewski, C. Alcock, P. Spencer, Materials Thermochemistry, 6th ed., Oxford, Pergamom Press, 1993.",mp-980
1138,USi3,-0.3381342975355534,0.007514095500790075,cubic,"O. Kubaschewski, C. Alcock, P. Spencer, Materials Thermochemistry, 6th ed., Oxford, Pergamom Press, 1993.",mp-2800
1139,V2O3,-2.5263943714104675,0.003523851683129139,hex,"O. Kubaschewski, C. Alcock, P. Spencer, Materials Thermochemistry, 6th ed., Oxford, Pergamom Press, 1993.",mp-21579
1141,V2O5,-2.295241545876803,0.0025170369165208135,orth,"O. Kubaschewski, C. Alcock, P. Spencer, Materials Thermochemistry, 6th ed., Oxford, Pergamom Press, 1993.",mp-25279
1143,V3Ge,-0.3658587188660547,,cubic,"O. Kubaschewski, C. Alcock, P. Spencer, Materials Thermochemistry, 6th ed., Oxford, Pergamom Press, 1993.",mp-1221
1148,VBr2,-1.2589132875806452,0.08671438945739353,hex,"O. Kubaschewski, C. Alcock, P. Spencer, Materials Thermochemistry, 6th ed., Oxford, Pergamom Press, 1993.",mp-971787
1149,VBr3,-1.1556160666732325,0.06503579209304515,hex,"O. Kubaschewski, C. Alcock, P. Spencer, Materials Thermochemistry, 6th ed., Oxford, Pergamom Press, 1993.",
1150,VCl2,-1.5943701487883308,0.029019955037534087,hex,"O. Kubaschewski, C. Alcock, P. Spencer, Materials Thermochemistry, 6th ed., Oxford, Pergamom Press, 1993.",mp-22877
1151,VCl3,-1.505928381054894,0.005441241569537641,hex,"O. Kubaschewski, C. Alcock, P. Spencer, Materials Thermochemistry, 6th ed., Oxford, Pergamom Press, 1993.",mp-28117
1152,VF4,-2.9088359217265416,0.03461666065191566,hex,"O. Kubaschewski, C. Alcock, P. Spencer, Materials Thermochemistry, 6th ed., Oxford, Pergamom Press, 1993.",mp-554799
1154,VN,-1.1253005779286656,,cr,https://janaf.nist.gov/tables/N-017.html,mp-925
1155,VO,-2.237645818787003,0.010882483139075283,cubic,"O. Kubaschewski, C. Alcock, P. Spencer, Materials Thermochemistry, 6th ed., Oxford, Pergamom Press, 1993.",mp-19184
1157,VO2,-2.4660052268799797,0.0034547565520873912,monocl,"O. Kubaschewski, C. Alcock, P. Spencer, Materials Thermochemistry, 6th ed., Oxford, Pergamom Press, 1993.",mp-1102963
1159,VSi2,-0.4221712506650792,0.1157343444949276,hex,"O. Kubaschewski, C. Alcock, P. Spencer, Materials Thermochemistry, 6th ed., Oxford, Pergamom Press, 1993.",mp-10711
1160,W(CO)6,-0.7548377315806942,0.006696912700969405,rhomb,"O. Kubaschewski, C. Alcock, P. Spencer, Materials Thermochemistry, 6th ed., Oxford, Pergamom Press, 1993.",
1161,W2C,-0.09120557297510712,0.008636891380218477,hex,"O. Kubaschewski, C. Alcock, P. Spencer, Materials Thermochemistry, 6th ed., Oxford, Pergamom Press, 1993.",mp-2034
1162,WC,-0.21039467402212214,0.008809629207822847,hex,"O. Kubaschewski, C. Alcock, P. Spencer, Materials Thermochemistry, 6th ed., Oxford, Pergamom Press, 1993.",mp-1894
1164,WCl4,-0.9184525569829164,,cr,https://janaf.nist.gov/tables/Cl-165.html,mp-980949
1166,WCl5,-0.8860725057228219,,cr,https://janaf.nist.gov/tables/Cl-182.html,mp-27160
1168,WCl6,-0.8482073868386435,,cr,https://janaf.nist.gov/tables/Cl-190.html,mp-571518
1169,WO2,-2.0365789874555174,0.021764966278150565,monocl,"O. Kubaschewski, C. Alcock, P. Spencer, Materials Thermochemistry, 6th ed., Oxford, Pergamom Press, 1993.",mp-19372
1171,WO3,-2.183492509833034,0.007514095500790075,monocl,"O. Kubaschewski, C. Alcock, P. Spencer, Materials Thermochemistry, 6th ed., Oxford, Pergamom Press, 1993.",mp-19443
1174,WOF4,-2.430265770348636,,cr,https://janaf.nist.gov/tables/F-133.html,mp-540636
1175,WS2,-0.8961638496114692,0.057694434419859435,hex,"O. Kubaschewski, C. Alcock, P. Spencer, Materials Thermochemistry, 6th ed., Oxford, Pergamom Press, 1993.",mp-9813
1176,Y2O3,-3.9487867390358877,0.010364269656262174,cubic,"O. Kubaschewski, C. Alcock, P. Spencer, Materials Thermochemistry, 6th ed., Oxford, Pergamom Press, 1993.",mp-2652
1177,YCl3,-2.5910674140655434,0.009846056173449065,monocl,"O. Kubaschewski, C. Alcock, P. Spencer, Materials Thermochemistry, 6th ed., Oxford, Pergamom Press, 1993.",mp-27455
1178,YF3,-4.45249024433023,0.008550522466416292,orth,"O. Kubaschewski, C. Alcock, P. Spencer, Materials Thermochemistry, 6th ed., Oxford, Pergamom Press, 1993.",mp-2416
1179,YH2,-0.7662650032529834,0.014509977518767044,cubic,"O. Kubaschewski, C. Alcock, P. Spencer, Materials Thermochemistry, 6th ed., Oxford, Pergamom Press, 1993.",mp-24650
1180,YH3,-0.6884466119172149,,hex,"O. Kubaschewski, C. Alcock, P. Spencer, Materials Thermochemistry, 6th ed., Oxford, Pergamom Press, 1993.",mp-1178678
1181,YN,-1.550494740576821,0.1083066179079397,cubic,"O. Kubaschewski, C. Alcock, P. Spencer, Materials Thermochemistry, 6th ed., Oxford, Pergamom Press, 1993.",mp-2114
1182,Yb2O3,-3.7614007436506682,0.006840417973133034,cubic,"O. Kubaschewski, C. Alcock, P. Spencer, Materials Thermochemistry, 6th ed., Oxford, Pergamom Press, 1993.",
1183,YbCl2,-2.7606959607730346,0.029019955037534087,orth,"O. Kubaschewski, C. Alcock, P. Spencer, Materials Thermochemistry, 6th ed., Oxford, Pergamom Press, 1993.",mp-23220
1184,YbCl3,-2.4902748916583937,0.008550522466416292,monocl,"O. Kubaschewski, C. Alcock, P. Spencer, Materials Thermochemistry, 6th ed., Oxford, Pergamom Press, 1993.",
1185,YbN,-1.8645321111615651,0.1083066179079397,cubic,"O. Kubaschewski, C. Alcock, P. Spencer, Materials Thermochemistry, 6th ed., Oxford, Pergamom Press, 1993.",
1186,Zn2SiO4,-2.4327902103149106,0.004886012837952167,hex,"O. Kubaschewski, C. Alcock, P. Spencer, Materials Thermochemistry, 6th ed., Oxford, Pergamom Press, 1993.",mp-3789
1187,Zn3As2,-0.27921342453970294,0.021764966278150565,tetrag,"O. Kubaschewski, C. Alcock, P. Spencer, Materials Thermochemistry, 6th ed., Oxford, Pergamom Press, 1993.",mp-680580
1188,Zn3N2,-0.046846498846305026,0.01741197302252045,cubic,"O. Kubaschewski, C. Alcock, P. Spencer, Materials Thermochemistry, 6th ed., Oxford, Pergamom Press, 1993.",mp-9460
1189,Zn3P2,-0.32958377506913716,0.030263667396285547,tetrag,"O. Kubaschewski, C. Alcock, P. Spencer, Materials Thermochemistry, 6th ed., Oxford, Pergamom Press, 1993.",mp-2071
1190,ZnBr2,-1.1390332352232129,0.008636891380218477,tetrag,"O. Kubaschewski, C. Alcock, P. Spencer, Materials Thermochemistry, 6th ed., Oxford, Pergamom Press, 1993.",mp-647579
1191,ZnCO3,-1.6955945157644916,0.002694710110628165,hex,"O. Kubaschewski, C. Alcock, P. Spencer, Materials Thermochemistry, 6th ed., Oxford, Pergamom Press, 1993.",mp-9812
1192,ZnCl2,-1.4340694447714764,0.002763805241669913,tetrag,"O. Kubaschewski, C. Alcock, P. Spencer, Materials Thermochemistry, 6th ed., Oxford, Pergamom Press, 1993.",mp-22909
1193,ZnCr2O4,-2.2921322649799243,0.006810805774115142,none,"O. Kubaschewski, C. Alcock, P. Spencer, Materials Thermochemistry, 6th ed., Oxford, Pergamom Press, 1993.",mp-19410
1194,ZnF2,-2.6408159084156018,0.005873086138548565,tetrag,"O. Kubaschewski, C. Alcock, P. Spencer, Materials Thermochemistry, 6th ed., Oxford, Pergamom Press, 1993.",mp-1873
1195,ZnI2,-0.7192803141445948,0.002763805241669913,tetrag,"O. Kubaschewski, C. Alcock, P. Spencer, Materials Thermochemistry, 6th ed., Oxford, Pergamom Press, 1993.",mp-27161
1196,ZnO,-1.816338257259946,0.003109280896878652,hex,"O. Kubaschewski, C. Alcock, P. Spencer, Materials Thermochemistry, 6th ed., Oxford, Pergamom Press, 1993.",mp-2133
1197,ZnP2,-0.3513487413472877,0.04352993255630113,tetrag,"O. Kubaschewski, C. Alcock, P. Spencer, Materials Thermochemistry, 6th ed., Oxford, Pergamom Press, 1993.",mp-2782
1198,ZnS,-1.063374066732499,0.012955337070327717,cubic,"O. Kubaschewski, C. Alcock, P. Spencer, Materials Thermochemistry, 6th ed., Oxford, Pergamom Press, 1993.",mp-556716
1200,ZnSO4,-1.6930794529945719,,cr,https://janaf.nist.gov/tables/O-071.html,mp-5126
1201,ZnSb,-0.09846056173449065,0.006736775276570413,rhomb,"O. Kubaschewski, C. Alcock, P. Spencer, Materials Thermochemistry, 6th ed., Oxford, Pergamom Press, 1993.",mp-753
1202,ZnSe,-0.8457244039509934,0.054412415695376415,cubic,"O. Kubaschewski, C. Alcock, P. Spencer, Materials Thermochemistry, 6th ed., Oxford, Pergamom Press, 1993.",mp-1190
1203,ZnSeO3,-1.352122619355963,0.007876844938759252,cryst,"O. Kubaschewski, C. Alcock, P. Spencer, Materials Thermochemistry, 6th ed., Oxford, Pergamom Press, 1993.",mp-5338
1204,ZnTe,-0.6177104715132256,0.008809629207822847,cubic,"O. Kubaschewski, C. Alcock, P. Spencer, Materials Thermochemistry, 6th ed., Oxford, Pergamom Press, 1993.",mp-2176
1205,ZnWO4,-2.126229919982185,0.013646288380745197,monocl,"O. Kubaschewski, C. Alcock, P. Spencer, Materials Thermochemistry, 6th ed., Oxford, Pergamom Press, 1993.",mp-18918
1207,ZrB2,-1.1144560971116633,,cr,https://janaf.nist.gov/tables/B-103.html,mp-1472
1209,ZrBr4,-1.5767184156610956,,cr,https://janaf.nist.gov/tables/Br-102.html,
1211,ZrC,-1.019056449682322,,cr,https://janaf.nist.gov/tables/C-110.html,mp-2795
1212,ZrCl4,-2.0320187088067616,0.003523851683129139,cubic,"O. Kubaschewski, C. Alcock, P. Spencer, Materials Thermochemistry, 6th ed., Oxford, Pergamom Press, 1993.",mp-569175
1214,ZrF4,-3.9618457188027785,0.006840417973133034,monocl,"O. Kubaschewski, C. Alcock, P. Spencer, Materials Thermochemistry, 6th ed., Oxford, Pergamom Press, 1993.",mp-1105223
1216,ZrI4,-1.0130037162030647,0.013058979766890338,cubic,"O. Kubaschewski, C. Alcock, P. Spencer, Materials Thermochemistry, 6th ed., Oxford, Pergamom Press, 1993.",mp-571235
1219,ZrN,-1.892842113727645,,cr,https://janaf.nist.gov/tables/N-019.html,mp-1352
1221,ZrO2,-3.7914571256538285,,cr,https://janaf.nist.gov/tables/O-052.html,mp-2858
1222,ZrS2,-1.9947764331752598,0.07220441193862646,hex,"O. Kubaschewski, C. Alcock, P. Spencer, Materials Thermochemistry, 6th ed., Oxford, Pergamom Press, 1993.",mp-1186
1224,ZrSiO4,-3.496127261798638,,cr,https://janaf.nist.gov/tables/O-072.html,mp-4820
1225,K3Al2Cl9,-2.117405484674853,,cr,https://janaf.nist.gov/tables/Al-086.html,
1226,Na5Al3F14,-3.5716262552128457,,cr,https://janaf.nist.gov/tables/Al-106.html,mp-4752
1227,Al6Si2O13,-3.36553006107998,,cr,https://janaf.nist.gov/tables/Al-112.html,
1228,KAlCl4,-2.067015392679407,,cr,https://janaf.nist.gov/tables/Al-029.html,mp-27755
1229,K3AlCl6,-2.168205212090047,,cr,https://janaf.nist.gov/tables/Al-031.html,
1230,Na3AlCl6,-2.051120057783253,,cr,https://janaf.nist.gov/tables/Al-032.html,
1231,B10Pb2O17,-2.533063242851359,,cr,https://janaf.nist.gov/tables/B-140.html,
1232,Be3(BO3)2,-2.9249476500103673,,cr,https://janaf.nist.gov/tables/B-085.html,
1233,B2PbO4,-2.3044953580698944,,cr,https://janaf.nist.gov/tables/B-099.html,
1234,BOF,-2.825894126424027,,cr,https://janaf.nist.gov/tables/B-109.html,
1235,B4PbO7,-2.468138539050894,,cr,https://janaf.nist.gov/tables/B-125.html,mp-9747
1236,KB3O5,-2.6679472632046615,,cr,https://janaf.nist.gov/tables/B-128.html,mp-559636
1237,B6PbO10,-2.5584809309404135,,cr,https://janaf.nist.gov/tables/B-131.html,
1238,K2B8O13,-2.678996976588432,,cr,https://janaf.nist.gov/tables/B-132.html,
1239,Li2B8O13,-2.6651403986784294,,cr,https://janaf.nist.gov/tables/B-135.html,
1240,BaI2,-2.091595985547509,,cr,https://janaf.nist.gov/tables/Ba-030.html,mp-23260
1241,LiBeF3,-3.4240230378000214,,cr,https://janaf.nist.gov/tables/Be-023.html,
1242,BeWO4,-2.6141279140507265,,cr,https://janaf.nist.gov/tables/Be-052.html,
1243,MoBr2,-0.7010530185757817,,cr,https://janaf.nist.gov/tables/Br-062.html,mp-29555
1244,ZrBr2,-1.3977703176786938,,cr,https://janaf.nist.gov/tables/Br-076.html,mp-28495
1245,MoBr3,-0.735021048685043,,cr,https://janaf.nist.gov/tables/Br-081.html,mp-1205355
1246,ZrBr3,-1.6478359611884354,,cr,https://janaf.nist.gov/tables/Br-089.html,mp-23247
1247,MoBr4,-0.6305144902465718,,cr,https://janaf.nist.gov/tables/Br-093.html,
1248,WBr5,-0.5384376276690283,,cr,https://janaf.nist.gov/tables/Br-108.html,mp-1095321
1249,WBr6,-0.5079795068325252,,cr,https://janaf.nist.gov/tables/Br-112.html,mp-28483
1250,Nb50C49,-0.727116330142284,,cr,https://janaf.nist.gov/tables/C-001.html,
1251,LiC,-0.1539430882718761,,cr,https://janaf.nist.gov/tables/C-131.html,mp-1378
1252,MgC2,0.30354872969260654,,cr,https://janaf.nist.gov/tables/C-132.html,
1253,Mg2C3,0.16478359611884355,,cr,https://janaf.nist.gov/tables/C-141.html,mp-28793
1254,CaI2,-1.8545375004563762,,cr,https://janaf.nist.gov/tables/Ca-023.html,mp-30031
1255,W(ClO)2,-1.617481088219175,,cr,https://janaf.nist.gov/tables/Cl-106.html,mp-32539
1256,WCl2,-0.8889641369569191,,cr,https://janaf.nist.gov/tables/Cl-125.html,