,formula,expt_form_e,uncertainty,phaseinfo,reference,likely_mpid
2453,MnV4(Ni2Sn)5,-0.284,0.0218,Fm-3m,"Kim, G., Meschel, S., Nash, P. et al. Experimental formation enthalpies for intermetallic phases and other inorganic compounds. Sci Data 4, 170162 (2017). https://doi.org/10.1038/sdata.2017.162",
2454,Mn2V3(Ni2Sn)5,-0.2964,0.0187,Fm-3m,"Kim, G., Meschel, S., Nash, P. et al. Experimental formation enthalpies for intermetallic phases and other inorganic compounds. Sci Data 4, 170162 (2017). https://doi.org/10.1038/sdata.2017.162",
2455,Mn3V2(Ni2Sn)5,-0.3285,0.0176,Fm-3m,"Kim, G., Meschel, S., Nash, P. et al. Experimental formation enthalpies for intermetallic phases and other inorganic compounds. Sci Data 4, 170162 (2017). https://doi.org/10.1038/sdata.2017.162",
2456,Mn4V(Ni2Sn)5,-0.2415,0.0352,Fm-3m,"Kim, G., Meschel, S., Nash, P. et al. Experimental formation enthalpies for intermetallic phases and other inorganic compounds. Sci Data 4, 170162 (2017). https://doi.org/10.1038/sdata.2017.162",
2457,Mn4FeNi7Sn4,-0.2612,0.0352,Fm-3m,"Kim, G., Meschel, S., Nash, P. et al. Experimental formation enthalpies for intermetallic phases and other inorganic compounds. Sci Data 4, 170162 (2017). https://doi.org/10.1038/sdata.2017.162",
2458,Mn2FeNi3Sn2,-0.2757,0.0259,Fm-3m,"Kim, G., Meschel, S., Nash, P. et al. Experimental formation enthalpies for intermetallic phases and other inorganic compounds. Sci Data 4, 170162 (2017). https://doi.org/10.1038/sdata.2017.162",
2460,MnFeNiSn,-0.1057,0.0249,Fm-3m,"Kim, G., Meschel, S., Nash, P. et al. Experimental formation enthalpies for intermetallic phases and other inorganic compounds. Sci Data 4, 170162 (2017). https://doi.org/10.1038/sdata.2017.162",
2461,Mn4CuNi7Sn4,-0.2384,0.0218,Fm-3m,"Kim, G., Meschel, S., Nash, P. et al. Experimental formation enthalpies for intermetallic phases and other inorganic compounds. Sci Data 4, 170162 (2017). https://doi.org/10.1038/sdata.2017.162",
2462,Mn2CuNi3Sn2,-0.2881,0.0269,Fm-3m,"Kim, G., Meschel, S., Nash, P. et al. Experimental formation enthalpies for intermetallic phases and other inorganic compounds. Sci Data 4, 170162 (2017). https://doi.org/10.1038/sdata.2017.162",
2463,Mn4Fe3Ni5Sn4,-0.2747,0.0197,Fm-3m,"Kim, G., Meschel, S., Nash, P. et al. Experimental formation enthalpies for intermetallic phases and other inorganic compounds. Sci Data 4, 170162 (2017). https://doi.org/10.1038/sdata.2017.162",
2464,MnCuNiSn,-0.2633,0.0207,Fm-3m,"Kim, G., Meschel, S., Nash, P. et al. Experimental formation enthalpies for intermetallic phases and other inorganic compounds. Sci Data 4, 170162 (2017). https://doi.org/10.1038/sdata.2017.162",
2465,Mn4Cu5Ni3Sn4,-0.2881,0.0238,Fm-3m,"Kim, G., Meschel, S., Nash, P. et al. Experimental formation enthalpies for intermetallic phases and other inorganic compounds. Sci Data 4, 170162 (2017). https://doi.org/10.1038/sdata.2017.162",
2466,Mn2Cu3NiSn2,-0.2747,0.0373,Fm-3m,"Kim, G., Meschel, S., Nash, P. et al. Experimental formation enthalpies for intermetallic phases and other inorganic compounds. Sci Data 4, 170162 (2017). https://doi.org/10.1038/sdata.2017.162",
2467,Mn4Cu7NiSn4,-0.2757,0.0228,Fm-3m,"Kim, G., Meschel, S., Nash, P. et al. Experimental formation enthalpies for intermetallic phases and other inorganic compounds. Sci Data 4, 170162 (2017). https://doi.org/10.1038/sdata.2017.162",
2468,Mn5Ni10Sn4Ge,-0.2218,0.0187,Fm-3m,"Kim, G., Meschel, S., Nash, P. et al. Experimental formation enthalpies for intermetallic phases and other inorganic compounds. Sci Data 4, 170162 (2017). https://doi.org/10.1038/sdata.2017.162",
2469,Mn5Ni10Sn3Ge2,-0.2829,0.0083,Fm-3m,"Kim, G., Meschel, S., Nash, P. et al. Experimental formation enthalpies for intermetallic phases and other inorganic compounds. Sci Data 4, 170162 (2017). https://doi.org/10.1038/sdata.2017.162",
2470,Mn5Ni10Sn2Ge3,-0.2498,0.0269,Fm-3m,"Kim, G., Meschel, S., Nash, P. et al. Experimental formation enthalpies for intermetallic phases and other inorganic compounds. Sci Data 4, 170162 (2017). https://doi.org/10.1038/sdata.2017.162",
2471,Mn5Ni10SnGe4,-0.3389,0.0363,Fm-3m,"Kim, G., Meschel, S., Nash, P. et al. Experimental formation enthalpies for intermetallic phases and other inorganic compounds. Sci Data 4, 170162 (2017). https://doi.org/10.1038/sdata.2017.162",
2472,Mn5Si(Ni5Sn2)2,-0.2446,0.0269,Fm-3m,"Kim, G., Meschel, S., Nash, P. et al. Experimental formation enthalpies for intermetallic phases and other inorganic compounds. Sci Data 4, 170162 (2017). https://doi.org/10.1038/sdata.2017.162",
2473,Mn5Ga(Ni5Sn2)2,-0.2477,0.0114,Fm-3m,"Kim, G., Meschel, S., Nash, P. et al. Experimental formation enthalpies for intermetallic phases and other inorganic compounds. Sci Data 4, 170162 (2017). https://doi.org/10.1038/sdata.2017.162",
2474,Mn5Ga2Ni10Sn3,-0.2995,0.0166,Fm-3m,"Kim, G., Meschel, S., Nash, P. et al. Experimental formation enthalpies for intermetallic phases and other inorganic compounds. Sci Data 4, 170162 (2017). https://doi.org/10.1038/sdata.2017.162",
2475,Mn5Ga3(Ni5Sn)2,-0.3078,0.0083,Fm-3m,"Kim, G., Meschel, S., Nash, P. et al. Experimental formation enthalpies for intermetallic phases and other inorganic compounds. Sci Data 4, 170162 (2017). https://doi.org/10.1038/sdata.2017.162",
2476,Mn5Ga4Ni10Sn,-0.2892,0.0083,Fm-3m,"Kim, G., Meschel, S., Nash, P. et al. Experimental formation enthalpies for intermetallic phases and other inorganic compounds. Sci Data 4, 170162 (2017). https://doi.org/10.1038/sdata.2017.162",
2477,Ce5Pb3,-0.7835,0.0404,P6_3/mcm,"Kim, G., Meschel, S., Nash, P. et al. Experimental formation enthalpies for intermetallic phases and other inorganic compounds. Sci Data 4, 170162 (2017). https://doi.org/10.1038/sdata.2017.162",mp-1190312
2478,Pr5Pb3,-0.8001,0.0332,P6_3/mcm,"Kim, G., Meschel, S., Nash, P. et al. Experimental formation enthalpies for intermetallic phases and other inorganic compounds. Sci Data 4, 170162 (2017). https://doi.org/10.1038/sdata.2017.162",mp-1188302
2479,Nd5Pb3,-0.7773,0.0373,P6_3/mcm,"Kim, G., Meschel, S., Nash, P. et al. Experimental formation enthalpies for intermetallic phases and other inorganic compounds. Sci Data 4, 170162 (2017). https://doi.org/10.1038/sdata.2017.162",mp-1106152
2480,Sm5Pb3,-0.7929,0.0259,P6_3/mcm,"Kim, G., Meschel, S., Nash, P. et al. Experimental formation enthalpies for intermetallic phases and other inorganic compounds. Sci Data 4, 170162 (2017). https://doi.org/10.1038/sdata.2017.162",mp-1179514
2481,Gd5Pb3,-0.798,0.0425,P6_3/mcm,"Kim, G., Meschel, S., Nash, P. et al. Experimental formation enthalpies for intermetallic phases and other inorganic compounds. Sci Data 4, 170162 (2017). https://doi.org/10.1038/sdata.2017.162",mp-1106250
2482,Tb25Pb13,-0.7379,0.0342,P6_3/mcm,"Kim, G., Meschel, S., Nash, P. et al. Experimental formation enthalpies for intermetallic phases and other inorganic compounds. Sci Data 4, 170162 (2017). https://doi.org/10.1038/sdata.2017.162",
2483,Dy5Pb3,-0.7887,0.0332,P6_3/mcm,"Kim, G., Meschel, S., Nash, P. et al. Experimental formation enthalpies for intermetallic phases and other inorganic compounds. Sci Data 4, 170162 (2017). https://doi.org/10.1038/sdata.2017.162",mp-569760
2484,Ho5Pb3,-0.7452,0.0404,P6_3/mcm,"Kim, G., Meschel, S., Nash, P. et al. Experimental formation enthalpies for intermetallic phases and other inorganic compounds. Sci Data 4, 170162 (2017). https://doi.org/10.1038/sdata.2017.162",mp-30730
2485,Er5Pb3,-0.7794,0.0342,P6_3/mcm,"Kim, G., Meschel, S., Nash, P. et al. Experimental formation enthalpies for intermetallic phases and other inorganic compounds. Sci Data 4, 170162 (2017). https://doi.org/10.1038/sdata.2017.162",mp-1190343
2486,Tm5Pb3,-0.7939,0.0352,P6_3/mcm,"Kim, G., Meschel, S., Nash, P. et al. Experimental formation enthalpies for intermetallic phases and other inorganic compounds. Sci Data 4, 170162 (2017). https://doi.org/10.1038/sdata.2017.162",mp-1189518
2487,Lu5Pb3,-0.7752,0.0249,P6_3/mcm,"Kim, G., Meschel, S., Nash, P. et al. Experimental formation enthalpies for intermetallic phases and other inorganic compounds. Sci Data 4, 170162 (2017). https://doi.org/10.1038/sdata.2017.162",mp-1105871
2488,Li81Sn19,-0.4156,0.0249,F-43m,"Kim, G., Meschel, S., Nash, P. et al. Experimental formation enthalpies for intermetallic phases and other inorganic compounds. Sci Data 4, 170162 (2017). https://doi.org/10.1038/sdata.2017.162",
2489,Ca3Ag,-0.1223,0.0062,Cmcm,"Kim, G., Meschel, S., Nash, P. et al. Experimental formation enthalpies for intermetallic phases and other inorganic compounds. Sci Data 4, 170162 (2017). https://doi.org/10.1038/sdata.2017.162",
2490,Cu2NiSn,-0.1461,0.0062,Fm-3m,"Kim, G., Meschel, S., Nash, P. et al. Experimental formation enthalpies for intermetallic phases and other inorganic compounds. Sci Data 4, 170162 (2017). https://doi.org/10.1038/sdata.2017.162",mp-4367
2491,Cu12Ni3Sn5,-0.1213,0.0062,Fm-3m,"Kim, G., Meschel, S., Nash, P. et al. Experimental formation enthalpies for intermetallic phases and other inorganic compounds. Sci Data 4, 170162 (2017). https://doi.org/10.1038/sdata.2017.162",
2492,Cu8Ni7Sn5,-0.1679,0.0062,Fm-3m,"Kim, G., Meschel, S., Nash, P. et al. Experimental formation enthalpies for intermetallic phases and other inorganic compounds. Sci Data 4, 170162 (2017). https://doi.org/10.1038/sdata.2017.162",
2493,Cu6Ni9Sn5,-0.1897,0.0062,Fm-3m,"Kim, G., Meschel, S., Nash, P. et al. Experimental formation enthalpies for intermetallic phases and other inorganic compounds. Sci Data 4, 170162 (2017). https://doi.org/10.1038/sdata.2017.162",
2494,Cu12Ni63Sn25,-0.2239,0.0062,Cmcm,"Kim, G., Meschel, S., Nash, P. et al. Experimental formation enthalpies for intermetallic phases and other inorganic compounds. Sci Data 4, 170162 (2017). https://doi.org/10.1038/sdata.2017.162",
2495,CuNi14Sn5,-0.2415,0.0062,P6_3/mmc,"Kim, G., Meschel, S., Nash, P. et al. Experimental formation enthalpies for intermetallic phases and other inorganic compounds. Sci Data 4, 170162 (2017). https://doi.org/10.1038/sdata.2017.162",
2496,Cu30Ni29Sn41,-0.229,0.0062,P6_3/mmc,"Kim, G., Meschel, S., Nash, P. et al. Experimental formation enthalpies for intermetallic phases and other inorganic compounds. Sci Data 4, 170162 (2017). https://doi.org/10.1038/sdata.2017.162",
2497,Cu20Ni39Sn41,-0.2705,0.0062,P6_3/mmc,"Kim, G., Meschel, S., Nash, P. et al. Experimental formation enthalpies for intermetallic phases and other inorganic compounds. Sci Data 4, 170162 (2017). https://doi.org/10.1038/sdata.2017.162",
2498,Cu10Ni49Sn41,-0.2995,0.0062,P6_3/mmc,"Kim, G., Meschel, S., Nash, P. et al. Experimental formation enthalpies for intermetallic phases and other inorganic compounds. Sci Data 4, 170162 (2017). https://doi.org/10.1038/sdata.2017.162",
2499,Cu55Ni54Sn91,-0.1886,0.0062,P6_3/mmc,"Kim, G., Meschel, S., Nash, P. et al. Experimental formation enthalpies for intermetallic phases and other inorganic compounds. Sci Data 4, 170162 (2017). https://doi.org/10.1038/sdata.2017.162",
2500,Cu75Ni34Sn91,-0.1679,0.0062,P6_3/mmc,"Kim, G., Meschel, S., Nash, P. et al. Experimental formation enthalpies for intermetallic phases and other inorganic compounds. Sci Data 4, 170162 (2017). https://doi.org/10.1038/sdata.2017.162",
2501,FeGe,-0.1613,0.0095,P6/mmm,"Kim, G., Meschel, S., Nash, P. et al. Experimental formation enthalpies for intermetallic phases and other inorganic compounds. Sci Data 4, 170162 (2017). https://doi.org/10.1038/sdata.2017.162",mp-22478
2502,FeGe2,-0.3823,0.0121,I4/mcm,"Kim, G., Meschel, S., Nash, P. et al. Experimental formation enthalpies for intermetallic phases and other inorganic compounds. Sci Data 4, 170162 (2017). https://doi.org/10.1038/sdata.2017.162",mp-21117
2503,LiAl,-0.2145,0.0052,Fd-3m,"Kim, G., Meschel, S., Nash, P. et al. Experimental formation enthalpies for intermetallic phases and other inorganic compounds. Sci Data 4, 170162 (2017). https://doi.org/10.1038/sdata.2017.162",mp-1067
2504,Li3Al2,-0.198,0.0041,R-3m,"Kim, G., Meschel, S., Nash, P. et al. Experimental formation enthalpies for intermetallic phases and other inorganic compounds. Sci Data 4, 170162 (2017). https://doi.org/10.1038/sdata.2017.162",mp-16506
2505,Li173Al77,-0.1565,0.0021,C12/m1,"Kim, G., Meschel, S., Nash, P. et al. Experimental formation enthalpies for intermetallic phases and other inorganic compounds. Sci Data 4, 170162 (2017). https://doi.org/10.1038/sdata.2017.162",
2506,SmMg,-0.1917,0.0021,Pm-3m,"Kim, G., Meschel, S., Nash, P. et al. Experimental formation enthalpies for intermetallic phases and other inorganic compounds. Sci Data 4, 170162 (2017). https://doi.org/10.1038/sdata.2017.162",mp-2558
2507,SmMg2,-0.1658,0.0021,Fd-3m,"Kim, G., Meschel, S., Nash, P. et al. Experimental formation enthalpies for intermetallic phases and other inorganic compounds. Sci Data 4, 170162 (2017). https://doi.org/10.1038/sdata.2017.162",mp-529
2508,SmMg3,-0.1244,0.0021,Fm-3m,"Kim, G., Meschel, S., Nash, P. et al. Experimental formation enthalpies for intermetallic phases and other inorganic compounds. Sci Data 4, 170162 (2017). https://doi.org/10.1038/sdata.2017.162",mp-30779
2509,Sm1667Mg8333,-0.0881,0.0021,F-43m,"Kim, G., Meschel, S., Nash, P. et al. Experimental formation enthalpies for intermetallic phases and other inorganic compounds. Sci Data 4, 170162 (2017). https://doi.org/10.1038/sdata.2017.162",
2510,Sm109Mg891,-0.057,0.0021,I4/m,"Kim, G., Meschel, S., Nash, P. et al. Experimental formation enthalpies for intermetallic phases and other inorganic compounds. Sci Data 4, 170162 (2017). https://doi.org/10.1038/sdata.2017.162",
2511,Nd3Al,-0.3131,0.0525,P6_3/mmc,"Kim, G., Meschel, S., Nash, P. et al. Experimental formation enthalpies for intermetallic phases and other inorganic compounds. Sci Data 4, 170162 (2017). https://doi.org/10.1038/sdata.2017.162",mp-1080098
2512,NbCr2,-0.0301,0.0003,Fd-3m,"Kim, G., Meschel, S., Nash, P. et al. Experimental formation enthalpies for intermetallic phases and other inorganic compounds. Sci Data 4, 170162 (2017). https://doi.org/10.1038/sdata.2017.162",mp-548
2513,NbFe2,-0.141,0.0003,P6_3/mmc,"Kim, G., Meschel, S., Nash, P. et al. Experimental formation enthalpies for intermetallic phases and other inorganic compounds. Sci Data 4, 170162 (2017). https://doi.org/10.1038/sdata.2017.162",mp-568901
2514,FeMoO4,-1.8519807729990034,,,"Landolt-Börnstein Database. Springer-Verlag Berlin Heidelberg & Material Phases DataSystem (MPDS), Switzerland & National Institute for Materials Science (NIMS), Japan.",mp-505526
2515,Na4V2O7,-2.333219988503691,,,"Landolt-Börnstein Database. Springer-Verlag Berlin Heidelberg & Material Phases DataSystem (MPDS), Switzerland & National Institute for Materials Science (NIMS), Japan.",mp-648893
2516,Na2MoO4,-2.175240898609859,,,"Landolt-Börnstein Database. Springer-Verlag Berlin Heidelberg & Material Phases DataSystem (MPDS), Switzerland & National Institute for Materials Science (NIMS), Japan.",mp-18852
2517,KFeO2,-1.7880189305878442,,,"Landolt-Börnstein Database. Springer-Verlag Berlin Heidelberg & Material Phases DataSystem (MPDS), Switzerland & National Institute for Materials Science (NIMS), Japan.",mp-559464
2518,Cr2CoO4,-2.120745931584191,0.009921098828106467,,"O. Kubaschewski, C. Alcock, P. Spencer, Materials Thermochemistry, 6th ed., Oxford, Pergamom Press, 1993.",mp-20758
2519,Mn(FeO2)2,-1.8195591402951083,0.00740380509560184,,"O. Kubaschewski, C. Alcock, P. Spencer, Materials Thermochemistry, 6th ed., Oxford, Pergamom Press, 1993.",mp-18750
2520,Cr2FeO4,-2.1417727380557006,0.00740380509560184,,"O. Kubaschewski, C. Alcock, P. Spencer, Materials Thermochemistry, 6th ed., Oxford, Pergamom Press, 1993.",mp-1104680
2521,Fe2CoO4,-1.6121045215163448,0.006811500687953692,,"O. Kubaschewski, C. Alcock, P. Spencer, Materials Thermochemistry, 6th ed., Oxford, Pergamom Press, 1993.",mp-753222
2522,FeCuO2,-1.3293532049153105,0.010883593490534707,,"O. Kubaschewski, C. Alcock, P. Spencer, Materials Thermochemistry, 6th ed., Oxford, Pergamom Press, 1993.",mp-510281
2523,Fe2CuO4,-1.4348574275276367,0.0,,"O. Kubaschewski, C. Alcock, P. Spencer, Materials Thermochemistry, 6th ed., Oxford, Pergamom Press, 1993.",
2524,Cr2NiO4,-2.0370829340038905,0.006219196280305547,,"O. Kubaschewski, C. Alcock, P. Spencer, Materials Thermochemistry, 6th ed., Oxford, Pergamom Press, 1993.",mp-19344
2525,Cr2CuO4,-1.9150682260283722,0.01110570764340276,,"O. Kubaschewski, C. Alcock, P. Spencer, Materials Thermochemistry, 6th ed., Oxford, Pergamom Press, 1993.",mp-504573
2526,TiMn2O4,-2.5913317834606446,0.0,,"O. Kubaschewski, C. Alcock, P. Spencer, Materials Thermochemistry, 6th ed., Oxford, Pergamom Press, 1993.",mp-540763
2527,TiMnO3,-2.8172959149784123,0.0,,"O. Kubaschewski, C. Alcock, P. Spencer, Materials Thermochemistry, 6th ed., Oxford, Pergamom Press, 1993.",mp-19082
2528,Ca(FeO2)2,-2.1907859277885846,0.0,,"O. Kubaschewski, C. Alcock, P. Spencer, Materials Thermochemistry, 6th ed., Oxford, Pergamom Press, 1993.",mp-20547
2529,Al2FeO4,-2.911916544100204,0.00370190254780092,,"O. Kubaschewski, C. Alcock, P. Spencer, Materials Thermochemistry, 6th ed., Oxford, Pergamom Press, 1993.",mp-30084
2530,Ti(FeO2)2,-2.222918441903497,0.017324903923708303,,"O. Kubaschewski, C. Alcock, P. Spencer, Materials Thermochemistry, 6th ed., Oxford, Pergamom Press, 1993.",mp-1193065
2531,TiFeO3,-2.5656257721687146,0.012231086017934243,,"O. Kubaschewski, C. Alcock, P. Spencer, Materials Thermochemistry, 6th ed., Oxford, Pergamom Press, 1993.",mp-19417
2532,Zn(FeO2)2,-1.745965317644826,0.008736490012810173,,"O. Kubaschewski, C. Alcock, P. Spencer, Materials Thermochemistry, 6th ed., Oxford, Pergamom Press, 1993.",mp-19313
2533,Al2CoO4,-2.8827455520235326,0.005626891872657399,,"O. Kubaschewski, C. Alcock, P. Spencer, Materials Thermochemistry, 6th ed., Oxford, Pergamom Press, 1993.",mp-36447
2534,TiCoO3,-2.503226502822982,0.007877648621720358,,"O. Kubaschewski, C. Alcock, P. Spencer, Materials Thermochemistry, 6th ed., Oxford, Pergamom Press, 1993.",mp-19424
2535,Al2NiO4,-2.843801537220667,0.006811500687953692,,"O. Kubaschewski, C. Alcock, P. Spencer, Materials Thermochemistry, 6th ed., Oxford, Pergamom Press, 1993.",mp-688785
2536,TiNiO3,-2.492031949518432,0.013060312188641645,,"O. Kubaschewski, C. Alcock, P. Spencer, Materials Thermochemistry, 6th ed., Oxford, Pergamom Press, 1993.",mp-18732
2537,Al2CuO4,-2.8827455520235326,0.006811500687953692,,"O. Kubaschewski, C. Alcock, P. Spencer, Materials Thermochemistry, 6th ed., Oxford, Pergamom Press, 1993.",mp-27719
2538,FeClO,-1.411066533820436,0.029022915974759218,,"O. Kubaschewski, C. Alcock, P. Spencer, Materials Thermochemistry, 6th ed., Oxford, Pergamom Press, 1993.",mp-540828
2539,Fe2(SeO3)3,-1.2632372254115862,0.010809555439578688,,"O. Kubaschewski, C. Alcock, P. Spencer, Materials Thermochemistry, 6th ed., Oxford, Pergamom Press, 1993.",
2540,Si(NiO2)2,-2.0742500355838116,0.013623001375907384,,"O. Kubaschewski, C. Alcock, P. Spencer, Materials Thermochemistry, 6th ed., Oxford, Pergamom Press, 1993.",mp-19072
2541,VCl3O,-1.524739621388243,0.012231086017934243,,"O. Kubaschewski, C. Alcock, P. Spencer, Materials Thermochemistry, 6th ed., Oxford, Pergamom Press, 1993.",mp-22938
2542,CaCl2O,-1.9341700431750248,0.0,,"O. Kubaschewski, C. Alcock, P. Spencer, Materials Thermochemistry, 6th ed., Oxford, Pergamom Press, 1993.",
2543,Ga2O3,-2.2614,,C12/m1,"Grindy, S., Meredig, B., Saal, J., Wolverton, C. Approaching chemical accuracy with density functional calculations: Diatomic energy corrections. Phys. Rev. B 87(7), 2013.",mp-886
2549,MgO,-3.1175,,Fm-3m,"Grindy, S., Meredig, B., Saal, J., Wolverton, C. Approaching chemical accuracy with density functional calculations: Diatomic energy corrections. Phys. Rev. B 87(7), 2013.",mp-1265
2551,Rb2O,-1.1615,,Fm-3m,"Grindy, S., Meredig, B., Saal, J., Wolverton, C. Approaching chemical accuracy with density functional calculations: Diatomic energy corrections. Phys. Rev. B 87(7), 2013.",mp-1394