,formula,expt_form_e,uncertainty,phaseinfo,reference,likely_mpid
2559,CaF2,-4.242333333333334,,Fm-3m,"Grindy, S., Meredig, B., Saal, J., Wolverton, C. Approaching chemical accuracy with density functional calculations: Diatomic energy corrections. Phys. Rev. B 87(7), 2013.",mp-2741
2561,KF,-2.9465,,Fm-3m,"Grindy, S., Meredig, B., Saal, J., Wolverton, C. Approaching chemical accuracy with density functional calculations: Diatomic energy corrections. Phys. Rev. B 87(7), 2013.",mp-463
2562,LiF,-3.197,,Fm-3m,"Grindy, S., Meredig, B., Saal, J., Wolverton, C. Approaching chemical accuracy with density functional calculations: Diatomic energy corrections. Phys. Rev. B 87(7), 2013.",mp-1138
2564,RbF,-2.9005,,Fm-3m,"Grindy, S., Meredig, B., Saal, J., Wolverton, C. Approaching chemical accuracy with density functional calculations: Diatomic energy corrections. Phys. Rev. B 87(7), 2013.",mp-2064
2570,SnF4,-2.4272,,I4/mmm,"Grindy, S., Meredig, B., Saal, J., Wolverton, C. Approaching chemical accuracy with density functional calculations: Diatomic energy corrections. Phys. Rev. B 87(7), 2013.",mp-2706
2571,In2O3,-1.9131,,Ia-3,"Grindy, S., Meredig, B., Saal, J., Wolverton, C. Approaching chemical accuracy with density functional calculations: Diatomic energy corrections. Phys. Rev. B 87(7), 2013.",mp-22598
2573,Ca3N2,-0.8934,,Ia-3,"Grindy, S., Meredig, B., Saal, J., Wolverton, C. Approaching chemical accuracy with density functional calculations: Diatomic energy corrections. Phys. Rev. B 87(7), 2013.",mp-844
2577,GeO2,-1.9323333333333332,,P3_121,"Grindy, S., Meredig, B., Saal, J., Wolverton, C. Approaching chemical accuracy with density functional calculations: Diatomic energy corrections. Phys. Rev. B 87(7), 2013.",mp-733
2584,Ge3N4,-0.5882857142857143,,P6_3/m,"Grindy, S., Meredig, B., Saal, J., Wolverton, C. Approaching chemical accuracy with density functional calculations: Diatomic energy corrections. Phys. Rev. B 87(7), 2013.",mp-13852
2588,SnCl2,-1.1503333333333334,,Pnam,"Grindy, S., Meredig, B., Saal, J., Wolverton, C. Approaching chemical accuracy with density functional calculations: Diatomic energy corrections. Phys. Rev. B 87(7), 2013.",mp-569152
2589,BaH2,-0.6466666666666666,,Pnma,"Grindy, S., Meredig, B., Saal, J., Wolverton, C. Approaching chemical accuracy with density functional calculations: Diatomic energy corrections. Phys. Rev. B 87(7), 2013.",mp-23715
2590,CaH2,-0.6,,Pnma,"Grindy, S., Meredig, B., Saal, J., Wolverton, C. Approaching chemical accuracy with density functional calculations: Diatomic energy corrections. Phys. Rev. B 87(7), 2013.",mp-23713
2591,SrH2,-0.6093333333333334,,Pnma,"Grindy, S., Meredig, B., Saal, J., Wolverton, C. Approaching chemical accuracy with density functional calculations: Diatomic energy corrections. Phys. Rev. B 87(7), 2013.",mp-23714
2592,CaCl2,-2.7479999999999998,,Pnnm,"Grindy, S., Meredig, B., Saal, J., Wolverton, C. Approaching chemical accuracy with density functional calculations: Diatomic energy corrections. Phys. Rev. B 87(7), 2013.",mp-23214
2593,Al2O3,-3.4578,,R+B63cH,"Grindy, S., Meredig, B., Saal, J., Wolverton, C. Approaching chemical accuracy with density functional calculations: Diatomic energy corrections. Phys. Rev. B 87(7), 2013.",mp-1143
2596,GaF3,-3.044625,,R-3cH,"Grindy, S., Meredig, B., Saal, J., Wolverton, C. Approaching chemical accuracy with density functional calculations: Diatomic energy corrections. Phys. Rev. B 87(7), 2013.",mp-588
2597,InF3,-3.0832499999999996,,R-3cH,"Grindy, S., Meredig, B., Saal, J., Wolverton, C. Approaching chemical accuracy with density functional calculations: Diatomic energy corrections. Phys. Rev. B 87(7), 2013.",mp-6949
2599,Cs2O,-1.1966666666666665,,R-3mH,"Grindy, S., Meredig, B., Saal, J., Wolverton, C. Approaching chemical accuracy with density functional calculations: Diatomic energy corrections. Phys. Rev. B 87(7), 2013.",mp-7988