,formula,expt_form_e,uncertainty,phaseinfo,reference,likely_mpid
0,Ag2CO3,-0.8737079320229012,0.004318445690109239,cryst,"O. Kubaschewski, C. Alcock, P. Spencer, Materials Thermochemistry, 6th ed., Oxford, Pergamom Press, 1993.",mp-4691
2,Ag2O,-0.10744292876991786,0.0020728539312524345,cubic,"O. Kubaschewski, C. Alcock, P. Spencer, Materials Thermochemistry, 6th ed., Oxford, Pergamom Press, 1993.",mp-353
3,Ag2O3,0.07026974826945753,,cryst,Standard Thermodynamic Properties of Chemical Substances (CRC Press),mp-546190
4,Ag2S,-0.10986125835637904,0.002763805241669913,monocl,"O. Kubaschewski, C. Alcock, P. Spencer, Materials Thermochemistry, 6th ed., Oxford, Pergamom Press, 1993.",mp-610517
5,Ag2SO4,-1.061745395786515,0.001924792936162975,orth,"O. Kubaschewski, C. Alcock, P. Spencer, Materials Thermochemistry, 6th ed., Oxford, Pergamom Press, 1993.",mp-5625
6,Ag2Se,-0.15028191001580152,0.002763805241669913,orth,"O. Kubaschewski, C. Alcock, P. Spencer, Materials Thermochemistry, 6th ed., Oxford, Pergamom Press, 1993.",mp-568936
7,Ag2Te,-0.12437123587514609,0.0020728539312524345,orth,"O. Kubaschewski, C. Alcock, P. Spencer, Materials Thermochemistry, 6th ed., Oxford, Pergamom Press, 1993.",mp-1592
8,Ag2WO4,-1.3703045095529487,0.03346178489021788,cryst,"O. Kubaschewski, C. Alcock, P. Spencer, Materials Thermochemistry, 6th ed., Oxford, Pergamom Press, 1993.",mp-637188
9,AgBr,-0.5218409771928004,0.00414570786250487,cubic,"O. Kubaschewski, C. Alcock, P. Spencer, Materials Thermochemistry, 6th ed., Oxford, Pergamom Press, 1993.",mp-23231
10,AgBrO3,-0.05472334378506427,,tetrag,"O. Kubaschewski, C. Alcock, P. Spencer, Materials Thermochemistry, 6th ed., Oxford, Pergamom Press, 1993.",
11,AgCl,-0.658131123172648,,cubic,"O. Kubaschewski, C. Alcock, P. Spencer, Materials Thermochemistry, 6th ed., Oxford, Pergamom Press, 1993.",mp-22922
13,AgF,-1.0670015611121908,0.01969211234689813,cubic,"O. Kubaschewski, C. Alcock, P. Spencer, Materials Thermochemistry, 6th ed., Oxford, Pergamom Press, 1993.",mp-7592
14,AgI,-0.32077414586131425,0.002072853931252435,alpha,"O. Kubaschewski, C. Alcock, P. Spencer, Materials Thermochemistry, 6th ed., Oxford, Pergamom Press, 1993.",mp-22925
15,AgNO3,-0.2580703144409281,0.002072853931252435,orth,"O. Kubaschewski, C. Alcock, P. Spencer, Materials Thermochemistry, 6th ed., Oxford, Pergamom Press, 1993.",mp-552185
16,AgO,-0.0629629381617927,,cryst,Standard Thermodynamic Properties of Chemical Substances (CRC Press),mp-499
17,Al2(SO4)3,-2.0980330098879425,0.0012802921340088567,hex,"O. Kubaschewski, C. Alcock, P. Spencer, Materials Thermochemistry, 6th ed., Oxford, Pergamom Press, 1993.",mp-4417
23,Al2S3,-1.3494900948632726,,cr,https://janaf.nist.gov/tables/Al-105.html,mp-684638
24,Al2Se3,-1.1751008936270053,0.05202863367443612,hex,"O. Kubaschewski, C. Alcock, P. Spencer, Materials Thermochemistry, 6th ed., Oxford, Pergamom Press, 1993.",mp-11674
26,Al2SiO5,-3.3547845343613623,0.0027206207847688207,kyanit,"O. Kubaschewski, C. Alcock, P. Spencer, Materials Thermochemistry, 6th ed., Oxford, Pergamom Press, 1993.",mp-5065
29,Al2Te3,-0.6608258332832763,0.0190702561675224,hex,"O. Kubaschewski, C. Alcock, P. Spencer, Materials Thermochemistry, 6th ed., Oxford, Pergamom Press, 1993.",mp-29502
30,Al4B2O9,-3.2410453117752653,0.0046293737797971045,orth,"O. Kubaschewski, C. Alcock, P. Spencer, Materials Thermochemistry, 6th ed., Oxford, Pergamom Press, 1993.",
32,Al4C3,-0.319345357258701,,cr,https://janaf.nist.gov/tables/C-139.html,mp-1591
33,AlAs,-0.6026822805116454,0.032647449417225846,cubic,"O. Kubaschewski, C. Alcock, P. Spencer, Materials Thermochemistry, 6th ed., Oxford, Pergamom Press, 1993.",mp-2172
36,AlBr3,-1.3247739028005014,,cr,https://janaf.nist.gov/tables/Al-010.html,mp-23288
37,AlCl3,-1.8282571673646475,0.004404814603911423,monocl,"O. Kubaschewski, C. Alcock, P. Spencer, Materials Thermochemistry, 6th ed., Oxford, Pergamom Press, 1993.",mp-25469
41,AlClO,-2.740610006179198,,cr,https://janaf.nist.gov/tables/Al-019.html,mp-27863
42,AlF3,-3.913548222204597,0.0033683876382852064,hex,"O. Kubaschewski, C. Alcock, P. Spencer, Materials Thermochemistry, 6th ed., Oxford, Pergamom Press, 1993.",mp-468
45,AlFe,-0.2601431683721806,,cryst,"K. Rzyman, Enthalpies of formation of AlFe: Experiment versus theory, Calphad. 24 (2000) 309-318.",mp-2658
46,AlH3,-0.029538168520347196,0.002072853931252435,hex,"O. Kubaschewski, C. Alcock, P. Spencer, Materials Thermochemistry, 6th ed., Oxford, Pergamom Press, 1993.",mp-1106356
49,AlI3,-0.7848913232035626,,cr,https://janaf.nist.gov/tables/Al-064.html,mp-30930
52,AlN,-1.6478359611884354,,cr,https://janaf.nist.gov/tables/Al-071.html,mp-661
53,AlP,-0.8519429657447507,0.012955337070327717,cubic,"O. Kubaschewski, C. Alcock, P. Spencer, Materials Thermochemistry, 6th ed., Oxford, Pergamom Press, 1993.",mp-1550
54,AlPO4,-2.9935465523837244,0.003627494379691761,hex,"O. Kubaschewski, C. Alcock, P. Spencer, Materials Thermochemistry, 6th ed., Oxford, Pergamom Press, 1993.",mp-7848
55,AlSb,-0.2601431683721806,0.005182134828131087,cubic,"O. Kubaschewski, C. Alcock, P. Spencer, Materials Thermochemistry, 6th ed., Oxford, Pergamom Press, 1993.",mp-2624
56,As2O3,-1.3801061474278709,0.004352993255630113,monocl,"O. Kubaschewski, C. Alcock, P. Spencer, Materials Thermochemistry, 6th ed., Oxford, Pergamom Press, 1993.",mp-1581
57,As2O5,-1.362309215818118,0.007403049754472981,cryst,"O. Kubaschewski, C. Alcock, P. Spencer, Materials Thermochemistry, 6th ed., Oxford, Pergamom Press, 1993.",mp-555434
58,As2S3,-0.34699574809165756,0.03461666065191566,monocl,"O. Kubaschewski, C. Alcock, P. Spencer, Materials Thermochemistry, 6th ed., Oxford, Pergamom Press, 1993.",mp-641
59,As2Se3,-0.2124675279533746,0.03461666065191566,rhomb,"O. Kubaschewski, C. Alcock, P. Spencer, Materials Thermochemistry, 6th ed., Oxford, Pergamom Press, 1993.",mp-1078443
60,AsI3,-0.16816027517285378,,hex,"O. Kubaschewski, C. Alcock, P. Spencer, Materials Thermochemistry, 6th ed., Oxford, Pergamom Press, 1993.",mp-23218
61,AsS,-0.36844978628012026,0.054412415695376415,monocl,"O. Kubaschewski, C. Alcock, P. Spencer, Materials Thermochemistry, 6th ed., Oxford, Pergamom Press, 1993.",mp-542810
62,Au2O3,-0.007047703366258278,,cubic,"O. Kubaschewski, C. Alcock, P. Spencer, Materials Thermochemistry, 6th ed., Oxford, Pergamom Press, 1993.",mp-27253
63,AuBr,-0.07358631455946144,0.01502819100158015,cryst,"O. Kubaschewski, C. Alcock, P. Spencer, Materials Thermochemistry, 6th ed., Oxford, Pergamom Press, 1993.",mp-505366
64,AuCl,-0.18862970774397156,0.010882483139075283,rhomb,"O. Kubaschewski, C. Alcock, P. Spencer, Materials Thermochemistry, 6th ed., Oxford, Pergamom Press, 1993.",mp-32780
65,AuCl3,-0.30678238182536033,0.010882483139075283,monocl,"O. Kubaschewski, C. Alcock, P. Spencer, Materials Thermochemistry, 6th ed., Oxford, Pergamom Press, 1993.",mp-27647
66,AuI,0.006736775276570413,0.010882483139075283,cryst,"O. Kubaschewski, C. Alcock, P. Spencer, Materials Thermochemistry, 6th ed., Oxford, Pergamom Press, 1993.",mp-27725
67,AuSe,-0.04093886514223559,0.032647449417225846,monocl,"O. Kubaschewski, C. Alcock, P. Spencer, Materials Thermochemistry, 6th ed., Oxford, Pergamom Press, 1993.",mp-2793
69,B2O3,-2.6397794814499758,0.003523851683129139,hex,"O. Kubaschewski, C. Alcock, P. Spencer, Materials Thermochemistry, 6th ed., Oxford, Pergamom Press, 1993.",mp-306
72,B2S3,-0.5229810468549893,0.01741197302252045,monocl,"O. Kubaschewski, C. Alcock, P. Spencer, Materials Thermochemistry, 6th ed., Oxford, Pergamom Press, 1993.",mp-1199451
74,B4C,-0.1299181929951776,,cr,https://janaf.nist.gov/tables/C-008.html,mp-696746
76,BHO2,-2.0800674629331932,,cr,https://janaf.nist.gov/tables/B-049.html,mp-1198592
79,BN,-1.3002701782656834,,cr,https://janaf.nist.gov/tables/B-072.html,mp-984
80,BP,-0.5985365726491405,0.030574595485973414,cubic,"O. Kubaschewski, C. Alcock, P. Spencer, Materials Thermochemistry, 6th ed., Oxford, Pergamom Press, 1993.",mp-1479
81,Ba(NO3)2,-1.142833467430509,0.0024183295864611738,nitba,"O. Kubaschewski, C. Alcock, P. Spencer, Materials Thermochemistry, 6th ed., Oxford, Pergamom Press, 1993.",mp-4396
82,Ba2SiO4,-3.3643899914177915,0.0056263178133994654,orth,"O. Kubaschewski, C. Alcock, P. Spencer, Materials Thermochemistry, 6th ed., Oxford, Pergamom Press, 1993.",mp-17612
83,Ba2Sn,-1.3010613175161116,0.1157343444949276,cryst,"O. Kubaschewski, C. Alcock, P. Spencer, Materials Thermochemistry, 6th ed., Oxford, Pergamom Press, 1993.",mp-1981
84,Ba2TiO4,-3.306794264327991,0.01865568538127191,monocl,"O. Kubaschewski, C. Alcock, P. Spencer, Materials Thermochemistry, 6th ed., Oxford, Pergamom Press, 1993.",mp-3397
85,Ba3Al2O6,-3.305542475914962,0.011871799788082126,cryst,"O. Kubaschewski, C. Alcock, P. Spencer, Materials Thermochemistry, 6th ed., Oxford, Pergamom Press, 1993.",
86,Ba3N2,-0.7068431905570802,0.06508761344132645,ps.hex,"O. Kubaschewski, C. Alcock, P. Spencer, Materials Thermochemistry, 6th ed., Oxford, Pergamom Press, 1993.",
87,BaAl2O4,-3.4412336478692205,0.011696818612067311,hex,"O. Kubaschewski, C. Alcock, P. Spencer, Materials Thermochemistry, 6th ed., Oxford, Pergamom Press, 1993.",mp-4202
88,BaBr2,-2.6176690395166164,0.005873086138548565,orth,"O. Kubaschewski, C. Alcock, P. Spencer, Materials Thermochemistry, 6th ed., Oxford, Pergamom Press, 1993.",mp-27456
91,BaC2,-0.2559974605096757,0.04352993255630113,tetrag,"O. Kubaschewski, C. Alcock, P. Spencer, Materials Thermochemistry, 6th ed., Oxford, Pergamom Press, 1993.",mp-10293
92,BaCO3,-2.5236996612998395,0.026117959533780676,orth,"O. Kubaschewski, C. Alcock, P. Spencer, Materials Thermochemistry, 6th ed., Oxford, Pergamom Press, 1993.",mp-5504
95,BaCl2,-2.9661054210904947,,cr,https://janaf.nist.gov/tables/Ba-013.html,mp-568662
98,BaF2,-4.1759715299011555,,cr,https://janaf.nist.gov/tables/Ba-019.html,mp-1029
100,BaHfO3,-3.710201251548733,0.026117959533780676,monocl,"O. Kubaschewski, C. Alcock, P. Spencer, Materials Thermochemistry, 6th ed., Oxford, Pergamom Press, 1993.",
101,BaMoO4,-2.6192236799650557,0.011573434449492761,tetrag,"O. Kubaschewski, C. Alcock, P. Spencer, Materials Thermochemistry, 6th ed., Oxford, Pergamom Press, 1993.",mp-19276
102,BaO,-2.840328099298649,0.010882483139075283,cubic,"O. Kubaschewski, C. Alcock, P. Spencer, Materials Thermochemistry, 6th ed., Oxford, Pergamom Press, 1993.",mp-1342
105,BaO2,-2.191352080989032,0.04042065165942248,cubic,"O. Kubaschewski, C. Alcock, P. Spencer, Materials Thermochemistry, 6th ed., Oxford, Pergamom Press, 1993.",mp-1105
106,BaS,-2.402437706321572,0.017101044932832585,cubic,"O. Kubaschewski, C. Alcock, P. Spencer, Materials Thermochemistry, 6th ed., Oxford, Pergamom Press, 1993.",mp-1500
109,BaSO4,-2.5584199646483174,0.021764966278150565,baryte,"O. Kubaschewski, C. Alcock, P. Spencer, Materials Thermochemistry, 6th ed., Oxford, Pergamom Press, 1993.",mp-3164
110,BaSiO3,-3.3538776607664396,0.014717262911892287,cryst,"O. Kubaschewski, C. Alcock, P. Spencer, Materials Thermochemistry, 6th ed., Oxford, Pergamom Press, 1993.",mp-7339
111,BaTiO3,-3.415441422524637,0.024252390995653485,cubic,"O. Kubaschewski, C. Alcock, P. Spencer, Materials Thermochemistry, 6th ed., Oxford, Pergamom Press, 1993.",mp-5020
112,BaUO4,-3.434373488430076,0.003627494379691761,none,"O. Kubaschewski, C. Alcock, P. Spencer, Materials Thermochemistry, 6th ed., Oxford, Pergamom Press, 1993.",mp-5611
113,BaV2O6,-2.6279181506211424,0.007715622966328507,cryst,"O. Kubaschewski, C. Alcock, P. Spencer, Materials Thermochemistry, 6th ed., Oxford, Pergamom Press, 1993.",mp-18929
114,BaZrO3,-3.666878604385557,0.012229838194389366,cubic,"O. Kubaschewski, C. Alcock, P. Spencer, Materials Thermochemistry, 6th ed., Oxford, Pergamom Press, 1993.",mp-3834
116,Be2C,-0.3136677116336705,,cr,https://janaf.nist.gov/tables/C-011.html,mp-1569
118,Be2SiO4,-3.134777000233057,,cr,https://janaf.nist.gov/tables/Be-060.html,mp-3347
121,Be3N2,-1.2193977821378696,,cr,https://janaf.nist.gov/tables/Be-061.html,mp-18337
122,BeAl2O4,-3.4071796189986445,0.008735598710278118,orth,"O. Kubaschewski, C. Alcock, P. Spencer, Materials Thermochemistry, 6th ed., Oxford, Pergamom Press, 1993.",mp-3081
124,BeAl6O10,-3.4288052337520054,0.0060966292095659845,cryst,"O. Kubaschewski, C. Alcock, P. Spencer, Materials Thermochemistry, 6th ed., Oxford, Pergamom Press, 1993.",mp-560974
128,BeBr2,-1.2285114299222764,0.04352993255630113,orth,"O. Kubaschewski, C. Alcock, P. Spencer, Materials Thermochemistry, 6th ed., Oxford, Pergamom Press, 1993.",mp-30139
129,BeCl2,-1.7142502011457637,0.01140069662188839,orth,"O. Kubaschewski, C. Alcock, P. Spencer, Materials Thermochemistry, 6th ed., Oxford, Pergamom Press, 1993.",mp-23267
134,BeF2,-3.5473440276833332,0.014509977518767044,βqtz,"O. Kubaschewski, C. Alcock, P. Spencer, Materials Thermochemistry, 6th ed., Oxford, Pergamom Press, 1993.",mp-15951
135,BeH2,-0.06564037448966044,0.007254988759383522,cryst,"O. Kubaschewski, C. Alcock, P. Spencer, Materials Thermochemistry, 6th ed., Oxford, Pergamom Press, 1993.",mp-768203
136,BeI2,-0.6519125613788906,0.07220441193862646,tetrag,"O. Kubaschewski, C. Alcock, P. Spencer, Materials Thermochemistry, 6th ed., Oxford, Pergamom Press, 1993.",mp-570886
141,BeO,-3.1178780585585217,,cr,https://janaf.nist.gov/tables/Be-045.html,mp-2542
144,BeS,-1.2141949187704262,,cr,https://janaf.nist.gov/tables/Be-053.html,mp-422
146,BeSO4,-2.038548198690207,,cr,https://janaf.nist.gov/tables/Be-051.html,mp-5046
147,Bi2(SO4)3,-1.5509215046214908,0.015302539316010624,cryst,"O. Kubaschewski, C. Alcock, P. Spencer, Materials Thermochemistry, 6th ed., Oxford, Pergamom Press, 1993.",mp-1195213
148,Bi2O3,-1.1829777385657647,0.006840417973133034,monocl,"O. Kubaschewski, C. Alcock, P. Spencer, Materials Thermochemistry, 6th ed., Oxford, Pergamom Press, 1993.",mp-23262
149,Bi2S3,-0.418094637933616,,orth,"O. Kubaschewski, C. Alcock, P. Spencer, Materials Thermochemistry, 6th ed., Oxford, Pergamom Press, 1993.",mp-22856
150,Bi2Se3,-0.2906141211615913,0.006840417973133034,rhomb,"O. Kubaschewski, C. Alcock, P. Spencer, Materials Thermochemistry, 6th ed., Oxford, Pergamom Press, 1993.",mp-541837
151,Bi2Te3,-0.16313360438956662,0.004352993255630113,hex,"O. Kubaschewski, C. Alcock, P. Spencer, Materials Thermochemistry, 6th ed., Oxford, Pergamom Press, 1993.",mp-34202
152,BiBr3,-0.7153937130234966,0.021764966278150565,cryst,"O. Kubaschewski, C. Alcock, P. Spencer, Materials Thermochemistry, 6th ed., Oxford, Pergamom Press, 1993.",mp-568301
153,BiCl3,-0.9812372297066213,0.012955337070327717,cubic,"O. Kubaschewski, C. Alcock, P. Spencer, Materials Thermochemistry, 6th ed., Oxford, Pergamom Press, 1993.",mp-22908
154,BiF3,-2.358907773765271,0.037829584245356936,cubic,"O. Kubaschewski, C. Alcock, P. Spencer, Materials Thermochemistry, 6th ed., Oxford, Pergamom Press, 1993.",mp-23237
155,BiI3,-0.3902147525582708,0.016323724708612923,hex,"O. Kubaschewski, C. Alcock, P. Spencer, Materials Thermochemistry, 6th ed., Oxford, Pergamom Press, 1993.",mp-22849
156,Ca(NO3)2,-1.078805312665156,,cryst,"O. Kubaschewski, C. Alcock, P. Spencer, Materials Thermochemistry, 6th ed., Oxford, Pergamom Press, 1993.",mp-3142
157,Ca2B2O5,-3.1356522052262523,0.005757927586812319,α,"O. Kubaschewski, C. Alcock, P. Spencer, Materials Thermochemistry, 6th ed., Oxford, Pergamom Press, 1993.",mp-1019560
158,Ca2Fe2O5,-2.4572531769480253,0.006218561793757304,cryst,"O. Kubaschewski, C. Alcock, P. Spencer, Materials Thermochemistry, 6th ed., Oxford, Pergamom Press, 1993.",mp-22113
159,Ca2P2O7,-3.143859869277272,0.01969211234689813,α,"O. Kubaschewski, C. Alcock, P. Spencer, Materials Thermochemistry, 6th ed., Oxford, Pergamom Press, 1993.",mp-17922
160,Ca2Pb,-0.7227350706966823,0.04352993255630113,orth,"O. Kubaschewski, C. Alcock, P. Spencer, Materials Thermochemistry, 6th ed., Oxford, Pergamom Press, 1993.",mp-30478
162,Ca2SiO4,-3.447452209662978,0.00799529373483082,olivin,"O. Kubaschewski, C. Alcock, P. Spencer, Materials Thermochemistry, 6th ed., Oxford, Pergamom Press, 1993.",mp-4481
163,Ca2V2O7,-2.9046336814840936,0.006312782426996052,none,"O. Kubaschewski, C. Alcock, P. Spencer, Materials Thermochemistry, 6th ed., Oxford, Pergamom Press, 1993.",mp-27614
164,Ca3(PO4)2,-3.2823642001382307,0.0200110129517062,rhomb,"O. Kubaschewski, C. Alcock, P. Spencer, Materials Thermochemistry, 6th ed., Oxford, Pergamom Press, 1993.",mp-1197377
165,Ca3Al2O6,-3.382049630104825,0.004334149128982363,cubic,"O. Kubaschewski, C. Alcock, P. Spencer, Materials Thermochemistry, 6th ed., Oxford, Pergamom Press, 1993.",mp-12147
167,Ca3P2,-1.0494859453931078,0.05202863367443612,cryst,"O. Kubaschewski, C. Alcock, P. Spencer, Materials Thermochemistry, 6th ed., Oxford, Pergamom Press, 1993.",
168,Ca3Sb2,-1.5090376619517725,0.07814659320821679,hex,"O. Kubaschewski, C. Alcock, P. Spencer, Materials Thermochemistry, 6th ed., Oxford, Pergamom Press, 1993.",
169,Ca3Si2O7,-3.4051807955649367,0.010882483139075283,rankin,"O. Kubaschewski, C. Alcock, P. Spencer, Materials Thermochemistry, 6th ed., Oxford, Pergamom Press, 1993.",mp-585516
170,Ca3SiO5,-3.372763663251184,0.009097525587163464,none,"O. Kubaschewski, C. Alcock, P. Spencer, Materials Thermochemistry, 6th ed., Oxford, Pergamom Press, 1993.",mp-641754
171,Ca3V2O8,-3.011777036958586,0.006696912700969405,none,"O. Kubaschewski, C. Alcock, P. Spencer, Materials Thermochemistry, 6th ed., Oxford, Pergamom Press, 1993.",mp-1182001
172,Ca3WO6,-3.0398402901816954,0.016893759539707343,none,"O. Kubaschewski, C. Alcock, P. Spencer, Materials Thermochemistry, 6th ed., Oxford, Pergamom Press, 1993.",mp-779906
173,Ca4Ti3O10,-3.457886155081635,0.011461662913984053,orth,"O. Kubaschewski, C. Alcock, P. Spencer, Materials Thermochemistry, 6th ed., Oxford, Pergamom Press, 1993.",mp-15315
174,CaAl2,-0.7486457448373377,0.057694434419859435,cubic,"O. Kubaschewski, C. Alcock, P. Spencer, Materials Thermochemistry, 6th ed., Oxford, Pergamom Press, 1993.",mp-2404
175,CaAl2O4,-3.4437506847857415,0.0031092808968786524,none,"O. Kubaschewski, C. Alcock, P. Spencer, Materials Thermochemistry, 6th ed., Oxford, Pergamom Press, 1993.",mp-2963
176,CaAl4O7,-3.4539792318631712,0.0028501741554720975,none,"O. Kubaschewski, C. Alcock, P. Spencer, Materials Thermochemistry, 6th ed., Oxford, Pergamom Press, 1993.",mp-4867
177,CaB4O7,-2.8854990412171913,0.005441241569537641,cryst,"O. Kubaschewski, C. Alcock, P. Spencer, Materials Thermochemistry, 6th ed., Oxford, Pergamom Press, 1993.",mp-556214
179,CaBr2,-2.3604520499440538,,cr,https://janaf.nist.gov/tables/Br-041.html,mp-22888
180,CaC2,-0.20521253919399104,0.017273782760436954,tetrag,"O. Kubaschewski, C. Alcock, P. Spencer, Materials Thermochemistry, 6th ed., Oxford, Pergamom Press, 1993.",mp-917
181,CaCO3,-2.5017274096285638,0.00601127640063206,calcit,"O. Kubaschewski, C. Alcock, P. Spencer, Materials Thermochemistry, 6th ed., Oxford, Pergamom Press, 1993.",mp-3953
185,CaCr2O4,-2.709072027151843,,cryst,"O. Kubaschewski, C. Alcock, P. Spencer, Materials Thermochemistry, 6th ed., Oxford, Pergamom Press, 1993.",mp-540582
189,CaGeO3,-2.6642391578387543,0.011193411228763148,tricl,"O. Kubaschewski, C. Alcock, P. Spencer, Materials Thermochemistry, 6th ed., Oxford, Pergamom Press, 1993.",mp-17761
191,CaHfO3,-3.6894727122362085,0.020728539312524347,monocl,"O. Kubaschewski, C. Alcock, P. Spencer, Materials Thermochemistry, 6th ed., Oxford, Pergamom Press, 1993.",
192,CaMg(CO3)2,-2.3993284254246934,0.005182134828131087,dolom,"O. Kubaschewski, C. Alcock, P. Spencer, Materials Thermochemistry, 6th ed., Oxford, Pergamom Press, 1993.",mp-6459
193,CaMg2,-0.13577193249703448,0.005873086138548565,hex,"O. Kubaschewski, C. Alcock, P. Spencer, Materials Thermochemistry, 6th ed., Oxford, Pergamom Press, 1993.",mp-2432
194,CaMoO4,-2.6705268147635532,0.005700348310944195,tetrag,"O. Kubaschewski, C. Alcock, P. Spencer, Materials Thermochemistry, 6th ed., Oxford, Pergamom Press, 1993.",mp-19330