,formula,expt_form_e,uncertainty,phaseinfo,reference,likely_mpid
931,RuS2,-0.7113343740747938,0.07220441193862646,cubic,"O. Kubaschewski, C. Alcock, P. Spencer, Materials Thermochemistry, 6th ed., Oxford, Pergamom Press, 1993.",mp-2030
932,Sb2O3,-1.4843707001698685,0.006840417973133034,cubic,"O. Kubaschewski, C. Alcock, P. Spencer, Materials Thermochemistry, 6th ed., Oxford, Pergamom Press, 1993.",mp-2136
933,Sb2O5,-1.4917145255263056,0.006810805774115142,cubic,"O. Kubaschewski, C. Alcock, P. Spencer, Materials Thermochemistry, 6th ed., Oxford, Pergamom Press, 1993.",mp-1705
934,Sb2S3,-0.4249350559067492,,orth,"O. Kubaschewski, C. Alcock, P. Spencer, Materials Thermochemistry, 6th ed., Oxford, Pergamom Press, 1993.",mp-2809
935,Sb2Se3,-0.26449616162781064,0.002694710110628165,orth,"O. Kubaschewski, C. Alcock, P. Spencer, Materials Thermochemistry, 6th ed., Oxford, Pergamom Press, 1993.",mp-2160
936,Sb2Te3,-0.11711624711576256,0.002694710110628165,rhomb,"O. Kubaschewski, C. Alcock, P. Spencer, Materials Thermochemistry, 6th ed., Oxford, Pergamom Press, 1993.",mp-1201
937,SbBr3,-0.6721228872086019,0.037829584245356936,orth,"O. Kubaschewski, C. Alcock, P. Spencer, Materials Thermochemistry, 6th ed., Oxford, Pergamom Press, 1993.",mp-27399
938,SbCl3,-0.9877148982417852,0.004404814603911423,orth,"O. Kubaschewski, C. Alcock, P. Spencer, Materials Thermochemistry, 6th ed., Oxford, Pergamom Press, 1993.",mp-22872
939,SbF3,-2.372122217577005,0.043270825814894574,orth,"O. Kubaschewski, C. Alcock, P. Spencer, Materials Thermochemistry, 6th ed., Oxford, Pergamom Press, 1993.",mp-1880
940,SbI3,-0.2601431683721806,0.071513460628209,hex,"O. Kubaschewski, C. Alcock, P. Spencer, Materials Thermochemistry, 6th ed., Oxford, Pergamom Press, 1993.",mp-23281
941,SbO2,-1.5667320963716318,0.008636891380218477,cubic,"O. Kubaschewski, C. Alcock, P. Spencer, Materials Thermochemistry, 6th ed., Oxford, Pergamom Press, 1993.",mp-230
942,Sc2O3,-3.955627157009021,0.006840417973133034,cubic,"O. Kubaschewski, C. Alcock, P. Spencer, Materials Thermochemistry, 6th ed., Oxford, Pergamom Press, 1993.",mp-216
943,ScCl3,-2.3806727400434213,0.008550522466416292,rhomb,"O. Kubaschewski, C. Alcock, P. Spencer, Materials Thermochemistry, 6th ed., Oxford, Pergamom Press, 1993.",mp-23309
944,ScF3,-4.272411059052675,0.021764966278150565,hex,"O. Kubaschewski, C. Alcock, P. Spencer, Materials Thermochemistry, 6th ed., Oxford, Pergamom Press, 1993.",mp-10694
945,ScN,-1.6261539090675352,0.08654165162978915,cubic,"O. Kubaschewski, C. Alcock, P. Spencer, Materials Thermochemistry, 6th ed., Oxford, Pergamom Press, 1993.",mp-2857
946,SeCl4,-0.3911475368273344,0.013058979766890338,monocl,"O. Kubaschewski, C. Alcock, P. Spencer, Materials Thermochemistry, 6th ed., Oxford, Pergamom Press, 1993.",mp-540675
947,SeO2,-0.7776656998748718,0.007254988759383522,tetrag,"O. Kubaschewski, C. Alcock, P. Spencer, Materials Thermochemistry, 6th ed., Oxford, Pergamom Press, 1993.",mp-726
948,Si3N4,-1.1027582914262952,0.01865568538127191,hex,"O. Kubaschewski, C. Alcock, P. Spencer, Materials Thermochemistry, 6th ed., Oxford, Pergamom Press, 1993.",mp-988
951,SiC,-0.37943591211575817,,cr,https://janaf.nist.gov/tables/C-101.html,mp-568656
952,SiI4,-0.3928058199723364,0.03461666065191566,cubic,"O. Kubaschewski, C. Alcock, P. Spencer, Materials Thermochemistry, 6th ed., Oxford, Pergamom Press, 1993.",mp-635441
955,SiO2,-3.1379553762609773,0.005873086138548565,αcrys,"O. Kubaschewski, C. Alcock, P. Spencer, Materials Thermochemistry, 6th ed., Oxford, Pergamom Press, 1993.",mp-6945
957,SiP,-0.32077414586131425,0.07565916849071387,cryst,"O. Kubaschewski, C. Alcock, P. Spencer, Materials Thermochemistry, 6th ed., Oxford, Pergamom Press, 1993.",mp-2798
958,SiS2,-0.7372450482154492,0.07220441193862646,orth,"O. Kubaschewski, C. Alcock, P. Spencer, Materials Thermochemistry, 6th ed., Oxford, Pergamom Press, 1993.",mp-1602
960,Sm2O3,-3.777983575100687,0.006840417973133034,monocl,"O. Kubaschewski, C. Alcock, P. Spencer, Materials Thermochemistry, 6th ed., Oxford, Pergamom Press, 1993.",mp-218
962,SmCl2,-2.820117773468937,0.029019955037534087,cryst,"O. Kubaschewski, C. Alcock, P. Spencer, Materials Thermochemistry, 6th ed., Oxford, Pergamom Press, 1993.",mp-29453
963,SmCl3,-2.664653728625005,0.008550522466416292,hex,"O. Kubaschewski, C. Alcock, P. Spencer, Materials Thermochemistry, 6th ed., Oxford, Pergamom Press, 1993.",
964,SmS,-2.2335001109244983,0.2166132358158794,cubic,"O. Kubaschewski, C. Alcock, P. Spencer, Materials Thermochemistry, 6th ed., Oxford, Pergamom Press, 1993.",mp-1269
965,SmSe,-2.298276796276137,0.032647449417225846,cubic,"O. Kubaschewski, C. Alcock, P. Spencer, Materials Thermochemistry, 6th ed., Oxford, Pergamom Press, 1993.",mp-1447
966,Sn2S3,-0.5464042962781418,0.04332264716317588,orth,"O. Kubaschewski, C. Alcock, P. Spencer, Materials Thermochemistry, 6th ed., Oxford, Pergamom Press, 1993.",mp-1509
967,SnBr2,-0.8989276548531392,0.023146868898985522,cryst,"O. Kubaschewski, C. Alcock, P. Spencer, Materials Thermochemistry, 6th ed., Oxford, Pergamom Press, 1993.",mp-29862
969,SnI2,-0.5254684715724922,0.01140069662188839,cryst,"O. Kubaschewski, C. Alcock, P. Spencer, Materials Thermochemistry, 6th ed., Oxford, Pergamom Press, 1993.",mp-27194
970,SnI4,-0.4276297660173773,0.010364269656262174,cubic,"O. Kubaschewski, C. Alcock, P. Spencer, Materials Thermochemistry, 6th ed., Oxford, Pergamom Press, 1993.",mp-23182
971,SnO,-1.454625246256396,0.00414570786250487,tetrag,"O. Kubaschewski, C. Alcock, P. Spencer, Materials Thermochemistry, 6th ed., Oxford, Pergamom Press, 1993.",mp-2097
972,SnO2,-1.9954673844856774,0.0013819026208349565,tetrag,"O. Kubaschewski, C. Alcock, P. Spencer, Materials Thermochemistry, 6th ed., Oxford, Pergamom Press, 1993.",mp-856
973,SnS,-0.5591523479553443,0.010882483139075283,orth,"O. Kubaschewski, C. Alcock, P. Spencer, Materials Thermochemistry, 6th ed., Oxford, Pergamom Press, 1993.",mp-2231
974,SnS2,-0.5306506064006232,,hex,"O. Kubaschewski, C. Alcock, P. Spencer, Materials Thermochemistry, 6th ed., Oxford, Pergamom Press, 1993.",mp-1170
975,SnSO4,-1.7525979988739335,0.05423967786777204,rhomb,"O. Kubaschewski, C. Alcock, P. Spencer, Materials Thermochemistry, 6th ed., Oxford, Pergamom Press, 1993.",mp-542967
976,SnSe,-0.48763888732713523,0.01969211234689813,orth,"O. Kubaschewski, C. Alcock, P. Spencer, Materials Thermochemistry, 6th ed., Oxford, Pergamom Press, 1993.",mp-691
977,SnSe2,-0.43080814204529766,0.029019955037534087,hex,"O. Kubaschewski, C. Alcock, P. Spencer, Materials Thermochemistry, 6th ed., Oxford, Pergamom Press, 1993.",mp-665
978,SnTe,-0.31455558406755696,0.00414570786250487,cubic,"O. Kubaschewski, C. Alcock, P. Spencer, Materials Thermochemistry, 6th ed., Oxford, Pergamom Press, 1993.",mp-1883
979,Sr2SiO4,-3.409696655915166,0.004886012837952167,cryst,"O. Kubaschewski, C. Alcock, P. Spencer, Materials Thermochemistry, 6th ed., Oxford, Pergamom Press, 1993.",mp-18510
980,Sr2TiO4,-3.3873394456566577,0.014213855528588124,tetrag,"O. Kubaschewski, C. Alcock, P. Spencer, Materials Thermochemistry, 6th ed., Oxford, Pergamom Press, 1993.",mp-5532
981,SrAl2O4,-3.462998614147371,0.024726186179939758,α,"O. Kubaschewski, C. Alcock, P. Spencer, Materials Thermochemistry, 6th ed., Oxford, Pergamom Press, 1993.",mp-3094
982,SrB4O7,-2.8783304213716097,0.023146868898985522,orth,"O. Kubaschewski, C. Alcock, P. Spencer, Materials Thermochemistry, 6th ed., Oxford, Pergamom Press, 1993.",mp-5540
984,SrBr2,-2.480515204398747,0.005873086138548565,α,"O. Kubaschewski, C. Alcock, P. Spencer, Materials Thermochemistry, 6th ed., Oxford, Pergamom Press, 1993.",mp-567744
985,SrC2,-0.29192692865138453,0.057694434419859435,tetrag,"O. Kubaschewski, C. Alcock, P. Spencer, Materials Thermochemistry, 6th ed., Oxford, Pergamom Press, 1993.",mp-10497
986,SrCO3,-2.5290890815210956,0.01741197302252045,orth,"O. Kubaschewski, C. Alcock, P. Spencer, Materials Thermochemistry, 6th ed., Oxford, Pergamom Press, 1993.",mp-3822
988,SrCl2,-2.863474968197634,,cr,https://janaf.nist.gov/tables/Cl-119.html,mp-23209
989,SrF2,-4.204784199545563,0.010018794001053434,cubic,"O. Kubaschewski, C. Alcock, P. Spencer, Materials Thermochemistry, 6th ed., Oxford, Pergamom Press, 1993.",mp-981
992,SrHfO3,-3.6971422717818427,0.025081532568154458,monocl,"O. Kubaschewski, C. Alcock, P. Spencer, Materials Thermochemistry, 6th ed., Oxford, Pergamom Press, 1993.",mp-3378
993,SrI2,-1.93984580399707,0.007254988759383522,cryst,"O. Kubaschewski, C. Alcock, P. Spencer, Materials Thermochemistry, 6th ed., Oxford, Pergamom Press, 1993.",mp-568284
995,SrMoO4,-2.6762271630744974,0.017273782760436954,tetrag,"O. Kubaschewski, C. Alcock, P. Spencer, Materials Thermochemistry, 6th ed., Oxford, Pergamom Press, 1993.",mp-18834
996,SrO,-3.0678238182536033,0.01969211234689813,cubic,"O. Kubaschewski, C. Alcock, P. Spencer, Materials Thermochemistry, 6th ed., Oxford, Pergamom Press, 1993.",mp-2472
998,SrO2,-2.1885882757473625,0.052166823936519606,tetrag,"O. Kubaschewski, C. Alcock, P. Spencer, Materials Thermochemistry, 6th ed., Oxford, Pergamom Press, 1993.",mp-2697
1000,SrS,-2.4283898375408524,,cr,https://janaf.nist.gov/tables/S-010.html,mp-1087
1001,SrSO4,-2.510053372919094,0.030401857658369044,celest,"O. Kubaschewski, C. Alcock, P. Spencer, Materials Thermochemistry, 6th ed., Oxford, Pergamom Press, 1993.",mp-5285
1002,SrSiO3,-3.385799611307727,0.007876844938759252,cryst,"O. Kubaschewski, C. Alcock, P. Spencer, Materials Thermochemistry, 6th ed., Oxford, Pergamom Press, 1993.",mp-3978
1003,SrTiO3,-3.463117062943443,0.016375546056894237,cubic,"O. Kubaschewski, C. Alcock, P. Spencer, Materials Thermochemistry, 6th ed., Oxford, Pergamom Press, 1993.",mp-4651
1004,SrWO4,-2.800598398949644,0.03541125465889576,cryst,"O. Kubaschewski, C. Alcock, P. Spencer, Materials Thermochemistry, 6th ed., Oxford, Pergamom Press, 1993.",mp-19163
1005,SrZrO3,-3.6633547527024275,0.030263667396285547,cryst,"O. Kubaschewski, C. Alcock, P. Spencer, Materials Thermochemistry, 6th ed., Oxford, Pergamom Press, 1993.",mp-4387
1006,Ta2C,-0.7199712654550123,0.031783760279203994,hex,"O. Kubaschewski, C. Alcock, P. Spencer, Materials Thermochemistry, 6th ed., Oxford, Pergamom Press, 1993.",mp-7088
1007,Ta2N,-0.9410756847886054,0.017273782760436954,hex,"O. Kubaschewski, C. Alcock, P. Spencer, Materials Thermochemistry, 6th ed., Oxford, Pergamom Press, 1993.",mp-1079438
1008,Ta2O5,-3.029920203510702,0.006218561793757305,orth,"O. Kubaschewski, C. Alcock, P. Spencer, Materials Thermochemistry, 6th ed., Oxford, Pergamom Press, 1993.",mp-10390
1013,TaC,-0.7467300823292052,,cr,https://janaf.nist.gov/tables/C-104.html,mp-1086
1014,TaCl3,-1.4310465327883994,0.009846056173449065,cubic,"O. Kubaschewski, C. Alcock, P. Spencer, Materials Thermochemistry, 6th ed., Oxford, Pergamom Press, 1993.",mp-1198283
1015,TaCl4,-1.4613620215329663,0.0095351280837612,monocl,"O. Kubaschewski, C. Alcock, P. Spencer, Materials Thermochemistry, 6th ed., Oxford, Pergamom Press, 1993.",mp-29465
1016,TaCl5,-1.4838179391215345,0.007254988759383522,monocl,"O. Kubaschewski, C. Alcock, P. Spencer, Materials Thermochemistry, 6th ed., Oxford, Pergamom Press, 1993.",mp-29831
1018,TaCr2,-0.09327842690635957,0.008636891380218477,cubic,"O. Kubaschewski, C. Alcock, P. Spencer, Materials Thermochemistry, 6th ed., Oxford, Pergamom Press, 1993.",mp-2385
1020,TaN,-1.3074526171374732,0.012955337070327717,cubic,"O. Kubaschewski, C. Alcock, P. Spencer, Materials Thermochemistry, 6th ed., Oxford, Pergamom Press, 1993.",mp-1279
1021,TaS2,-1.2229838194389366,0.057694434419859435,hex,"O. Kubaschewski, C. Alcock, P. Spencer, Materials Thermochemistry, 6th ed., Oxford, Pergamom Press, 1993.",mp-1984
1023,Tb2O3,-3.866287152572041,0.015546404484393261,cubic,"O. Kubaschewski, C. Alcock, P. Spencer, Materials Thermochemistry, 6th ed., Oxford, Pergamom Press, 1993.",mp-1056
1024,TbCl3,-2.5876990264272584,0.008550522466416292,orth,"O. Kubaschewski, C. Alcock, P. Spencer, Materials Thermochemistry, 6th ed., Oxford, Pergamom Press, 1993.",mp-570232
1025,TbF3,-4.425284036482542,0.012955337070327717,orth,"O. Kubaschewski, C. Alcock, P. Spencer, Materials Thermochemistry, 6th ed., Oxford, Pergamom Press, 1993.",mp-11347
1026,TbO2,-3.356295990352901,0.013128074897932086,cubic,"O. Kubaschewski, C. Alcock, P. Spencer, Materials Thermochemistry, 6th ed., Oxford, Pergamom Press, 1993.",mp-2458
1027,TeCl4,-0.6711901029395384,,cryst,"O. Kubaschewski, C. Alcock, P. Spencer, Materials Thermochemistry, 6th ed., Oxford, Pergamom Press, 1993.",mp-569561
1028,TeO2,-1.092739497425242,0.007254988759383522,tetrag,"O. Kubaschewski, C. Alcock, P. Spencer, Materials Thermochemistry, 6th ed., Oxford, Pergamom Press, 1993.",mp-2125
1029,Th(SO4)2,-2.3945231731295173,0.01969211234689813,cryst,"O. Kubaschewski, C. Alcock, P. Spencer, Materials Thermochemistry, 6th ed., Oxford, Pergamom Press, 1993.",mp-1202893
1030,Th2N2O,-2.6712868612050125,0.05202863367443612,hex,"O. Kubaschewski, C. Alcock, P. Spencer, Materials Thermochemistry, 6th ed., Oxford, Pergamom Press, 1993.",
1031,Th2S3,-2.2453153783326374,0.026117959533780676,orth,"O. Kubaschewski, C. Alcock, P. Spencer, Materials Thermochemistry, 6th ed., Oxford, Pergamom Press, 1993.",mp-20163
1032,Th3N4,-1.932788229897806,0.03094474797369706,hex,"O. Kubaschewski, C. Alcock, P. Spencer, Materials Thermochemistry, 6th ed., Oxford, Pergamom Press, 1993.",mp-467
1033,Th3Si2,-0.5905560850138186,0.04332264716317588,tetrag,"O. Kubaschewski, C. Alcock, P. Spencer, Materials Thermochemistry, 6th ed., Oxford, Pergamom Press, 1993.",mp-1079146
1034,Th7Rh3,-0.7848861410687344,,hex,"O. Kubaschewski, C. Alcock, P. Spencer, Materials Thermochemistry, 6th ed., Oxford, Pergamom Press, 1993.",mp-1107
1035,Th7Ru3,-0.5238101884274903,,hex,"O. Kubaschewski, C. Alcock, P. Spencer, Materials Thermochemistry, 6th ed., Oxford, Pergamom Press, 1993.",mp-573601
1036,ThBr4,-2.0017550414104766,0.013058979766890338,orth,"O. Kubaschewski, C. Alcock, P. Spencer, Materials Thermochemistry, 6th ed., Oxford, Pergamom Press, 1993.",mp-570229
1037,ThC,-0.6550218422757694,0.054412415695376415,cubic,"O. Kubaschewski, C. Alcock, P. Spencer, Materials Thermochemistry, 6th ed., Oxford, Pergamom Press, 1993.",mp-1164
1038,ThC2,-0.4221712506650792,0.021764966278150565,monocl,"O. Kubaschewski, C. Alcock, P. Spencer, Materials Thermochemistry, 6th ed., Oxford, Pergamom Press, 1993.",mp-7224
1039,ThCl4,-2.4596484748241387,0.00601127640063206,orth,"O. Kubaschewski, C. Alcock, P. Spencer, Materials Thermochemistry, 6th ed., Oxford, Pergamom Press, 1993.",mp-567431
1040,ThF4,-4.37620921966014,0.01741197302252045,monocl,"O. Kubaschewski, C. Alcock, P. Spencer, Materials Thermochemistry, 6th ed., Oxford, Pergamom Press, 1993.",mp-31034
1041,ThH2,-0.4957575652245407,0.014509977518767044,bctet,"O. Kubaschewski, C. Alcock, P. Spencer, Materials Thermochemistry, 6th ed., Oxford, Pergamom Press, 1993.",mp-24291
1042,ThI4,-1.3772041519241176,0.012229838194389366,monocl,"O. Kubaschewski, C. Alcock, P. Spencer, Materials Thermochemistry, 6th ed., Oxford, Pergamom Press, 1993.",mp-27697
1043,ThN,-1.9624744594132426,0.054412415695376415,cubic,"O. Kubaschewski, C. Alcock, P. Spencer, Materials Thermochemistry, 6th ed., Oxford, Pergamom Press, 1993.",mp-834
1044,ThO2,-4.2379498624456025,0.004491183517713608,cubic,"O. Kubaschewski, C. Alcock, P. Spencer, Materials Thermochemistry, 6th ed., Oxford, Pergamom Press, 1993.",mp-643
1045,ThRe2,-0.6014731157184148,0.017273782760436954,hex,"O. Kubaschewski, C. Alcock, P. Spencer, Materials Thermochemistry, 6th ed., Oxford, Pergamom Press, 1993.",mp-1659
1046,ThRh,-1.2053645610232908,0.032647449417225846,orth,"O. Kubaschewski, C. Alcock, P. Spencer, Materials Thermochemistry, 6th ed., Oxford, Pergamom Press, 1993.",mp-12755
1047,ThRh3,-0.8335463871048853,0.027206207847688207,cubic,"O. Kubaschewski, C. Alcock, P. Spencer, Materials Thermochemistry, 6th ed., Oxford, Pergamom Press, 1993.",mp-2509
1048,ThRu,-0.6311840220663664,0.038866011210983153,orth,"O. Kubaschewski, C. Alcock, P. Spencer, Materials Thermochemistry, 6th ed., Oxford, Pergamom Press, 1993.",mp-12775
1049,ThS,-2.0707810773211826,0.032647449417225846,cubic,"O. Kubaschewski, C. Alcock, P. Spencer, Materials Thermochemistry, 6th ed., Oxford, Pergamom Press, 1993.",mp-503
1050,ThS2,-2.168205212090047,0.1157343444949276,orth,"O. Kubaschewski, C. Alcock, P. Spencer, Materials Thermochemistry, 6th ed., Oxford, Pergamom Press, 1993.",mp-1146
1051,ThSi,-0.6633132580007791,0.06529489883445169,orth,"O. Kubaschewski, C. Alcock, P. Spencer, Materials Thermochemistry, 6th ed., Oxford, Pergamom Press, 1993.",mp-21238
1052,ThSi2,-0.6014731157184148,0.057694434419859435,hex,"O. Kubaschewski, C. Alcock, P. Spencer, Materials Thermochemistry, 6th ed., Oxford, Pergamom Press, 1993.",mp-7497
1053,Ti2O3,-3.1526035440418285,0.01741197302252045,trigon,"O. Kubaschewski, C. Alcock, P. Spencer, Materials Thermochemistry, 6th ed., Oxford, Pergamom Press, 1993.",mp-458
1056,Ti3O5,-3.169121598806496,,cr,https://janaf.nist.gov/tables/O-081.html,mp-1147
1058,TiB,-0.8301779994666001,0.08654165162978915,orth,"O. Kubaschewski, C. Alcock, P. Spencer, Materials Thermochemistry, 6th ed., Oxford, Pergamom Press, 1993.",mp-7857
1060,TiB2,-1.0913575948044067,0.025910674140655437,hex,"O. Kubaschewski, C. Alcock, P. Spencer, Materials Thermochemistry, 6th ed., Oxford, Pergamom Press, 1993.",mp-1145
1063,TiBr2,-1.4006619489127912,,cr,https://janaf.nist.gov/tables/Br-074.html,mp-27785
1065,TiBr3,-1.4255949269492059,,cr,https://janaf.nist.gov/tables/Br-087.html,mp-28214
1067,TiBr4,-1.280976053873586,,cr,https://janaf.nist.gov/tables/Br-098.html,mp-569814
1068,TiC,-0.9561038757901855,0.023837820209402998,cubic,"O. Kubaschewski, C. Alcock, P. Spencer, Materials Thermochemistry, 6th ed., Oxford, Pergamom Press, 1993.",mp-631
1070,TiCl2,-1.7808199051479356,,cr,https://janaf.nist.gov/tables/Cl-123.html,mp-28116
1071,TiCl3,-1.8699733527311029,0.012955337070327717,trigon,"O. Kubaschewski, C. Alcock, P. Spencer, Materials Thermochemistry, 6th ed., Oxford, Pergamom Press, 1993.",mp-571143
1073,TiCl4,-1.6894298481729468,,cr,https://janaf.nist.gov/tables/Cl-161.html,mp-30092
1074,TiCr2,0.0010364269656262172,,cubic,"O. Kubaschewski, C. Alcock, P. Spencer, Materials Thermochemistry, 6th ed., Oxford, Pergamom Press, 1993.",mp-1425
1075,TiF4,-3.41875798881464,0.007876844938759252,cryst,"O. Kubaschewski, C. Alcock, P. Spencer, Materials Thermochemistry, 6th ed., Oxford, Pergamom Press, 1993.",mp-28974
1077,TiI4,-0.7788188976119585,,cr,https://janaf.nist.gov/tables/I-065.html,mp-541013
1080,TiN,-1.7497426425836333,,cr,https://janaf.nist.gov/tables/N-014.html,mp-492
1082,TiO,-2.7904811443868556,,cr,https://janaf.nist.gov/tables/O-019.html,mp-1071163
1084,TiO2,-3.261290185170497,0.002763805241669913,rutile,"O. Kubaschewski, C. Alcock, P. Spencer, Materials Thermochemistry, 6th ed., Oxford, Pergamom Press, 1993.",mp-554278
1086,TiS,-1.4095406732516556,0.15183655046424085,hex,"O. Kubaschewski, C. Alcock, P. Spencer, Materials Thermochemistry, 6th ed., Oxford, Pergamom Press, 1993.",mp-1018028
1087,TiS2,-1.4064313923547769,0.1157343444949276,hex,"O. Kubaschewski, C. Alcock, P. Spencer, Materials Thermochemistry, 6th ed., Oxford, Pergamom Press, 1993.",mp-2156
1090,Tl2O,-0.5783262468194293,0.025910674140655437,hex,"O. Kubaschewski, C. Alcock, P. Spencer, Materials Thermochemistry, 6th ed., Oxford, Pergamom Press, 1993.",mp-27484
1091,Tl2O3,-0.8092421747609505,0.012229838194389366,cubic,"O. Kubaschewski, C. Alcock, P. Spencer, Materials Thermochemistry, 6th ed., Oxford, Pergamom Press, 1993.",mp-1658
1092,Tl2S,-0.3282018724483022,0.015891880139601997,hex,"O. Kubaschewski, C. Alcock, P. Spencer, Materials Thermochemistry, 6th ed., Oxford, Pergamom Press, 1993.",mp-556516