,likely_mpid,expt_gap,formula
1646,mp-1042,0.0,HfSi
1647,mp-10456,0.0,HfSiPt
1648,mp-11460,0.0,HfTc
1649,,0.0,HfTiF6
1650,,0.0,HfTl3
1651,mp-1018720,0.0,HfVSi
1652,,0.0,HfZnNi2
1653,mp-11870,0.0,Hg2Rh
1654,mp-557697,0.0,Hg2Sb2O7
1655,,0.0,Hg3As
1656,mp-1104411,3.26,Hg3Bi2(SCl4)2
1657,mp-1192395,2.8,Hg3Bi2(TeCl4)2
1658,,0.0,Hg3C
1659,,1.98,Hg3PS3
1660,,2.03,Hg3PS4
1661,,0.0,Hg3Sb
1662,,1.57,Hg5AsS2I3
1663,,1.73,Hg7.5As4Cl6
1664,,2.43,Hg8Bi3As4Cl13
1665,mp-23177,2.6,HgBr
1666,mp-23292,3.59,HgBr2
1667,,3.4,HgBrCl
1668,mp-22855,4.45,HgCl2
1669,mp-22859,2.37,HgI
1670,,0.0,HgIrO3
1671,,0.0,HgOsPb2
1672,mp-27178,2.6,HgPS3
1673,mp-623,0.0,HgPt
1674,mp-1066522,0.0,HgPt3
1675,,0.0,HgRhO3
1676,mp-1123,2.1,HgS
1677,mp-2730,0.15,HgTe
1678,,2.06,HgTeBr
1679,,1.85,HgTeI
1680,mp-20410,0.0,Ho(BC)2
1681,,0.0,Ho(BiO3)2
1682,,0.0,Ho(CuO2)2
1683,,0.16,Ho(CuSe)3
1684,,0.26,Ho(CuTe)3
1685,,1.23,Ho(InS2)3
1686,mp-20630,0.0,Ho(MnSn)6
1687,mp-31009,0.0,Ho(NiB)2
1688,,0.0,Ho(SbO3)2
1689,mp-5219,0.0,Ho(SiOs)2
1690,mp-4148,0.0,Ho(SiPd)2
1691,mp-16377,0.0,Ho(SiPt)2
1692,mp-5720,0.0,Ho(SiRu)2
1693,mp-569851,0.0,Ho10Si17
1694,mp-30385,0.0,Ho2Au
1695,,0.0,Ho2B4C
1696,mp-1023,0.0,Ho2Co17
1697,,0.0,Ho2CuRh
1698,mp-17534,0.0,Ho2Ge5Rh3
1699,,2.5,Ho2GeS5
1700,mp-1195954,1.0,Ho2HfS5
1701,mp-812,5.42,Ho2O3
1702,mp-31089,0.0,Ho2Pd2Pb
1703,mp-878,0.5,Ho2S3
1704,mp-29677,0.0,Ho3AlC
1705,,0.0,Ho3GaC
1706,mp-542748,0.0,Ho3Ge5
1707,,0.0,Ho3Hg
1708,mp-28151,0.0,Ho3Ni19B10
1709,,0.0,Ho3P
1710,,0.0,Ho3Pd2
1711,mp-1154,0.0,Ho4C7
1712,mp-978039,0.0,Ho4Ga16Co3
1713,mp-21816,0.0,Ho5(Ge5Rh2)2
1714,mp-542829,0.0,Ho5Si4
1715,,0.0,HoAlAu2
1716,mp-569726,0.0,HoAlB14
1717,mp-1025027,0.0,HoB2Rh3
1718,mp-569281,0.0,HoB4
1719,mp-1423,0.0,HoC2
1720,mp-170,0.0,HoCd
1721,mp-11302,0.0,HoCd3
1722,mp-12007,0.0,HoCdCu4
1723,mp-30558,0.0,HoCo3
1724,,0.0,HoCu4Pd
1725,mp-16342,0.0,HoGe
1726,mp-5519,0.0,HoGeAu
1727,mp-30388,0.0,HoInAu2
1728,mp-21290,0.0,HoInPt
1729,mp-13499,0.0,HoMg2
1730,,0.0,HoMgAu2
1731,,0.0,HoMgZn2
1732,mp-14015,0.0,HoMn12
1733,mp-542171,0.0,HoNiGe
1734,,0.0,HoSb2
1735,mp-12899,0.0,HoSi
1736,mp-570102,0.0,HoSiRu2C
1737,,0.0,HoTh3
1738,mp-22108,0.0,HoTiGe
1739,,0.0,HoTiO3
1740,mp-22274,0.0,HoTiSi
1741,mp-30732,0.0,HoTlPd
1742,mp-13380,0.0,HoZnRh
1743,,0.0,HoZnRh2
1744,,0.0,ICl2
1745,mp-20152,0.0,In(MoSe)3
1746,,1.29,In(PSe2)2
1747,,0.3,In0.001Te1Pb0.999
1748,,0.43,In0.005Te1Pb0.995
1749,,1.43,In0.01Ga0.99As0.99P0.01
1750,,1.4,In0.01Ga0.99As1
1751,,0.53,In0.01Te1Pb0.99
1752,,0.37,In0.04Te1Pb0.96
1753,,0.32,In0.07Te1Pb0.93
1754,,2.25,In0.1Ga0.9As0.1P0.9
1755,,1.6,In0.1Ga0.9As0.9P0.1
1756,,2.15,In0.2Ga0.8As0.2P0.8
1757,,1.58,In0.2Ga0.8As0.8P0.2
1758,,1.07,In0.2Ga0.8As1
1759,,2.05,In0.3Ga0.7As0.3P0.7
1760,,1.67,In0.3Ga0.7As0.7P0.3
1761,,1.0,In0.3Ga0.7As1
1762,,2.2,In0.3Ga0.7P1
1763,,1.85,In0.4Ga0.6As0.4P0.6
1764,,1.74,In0.4Ga0.6As0.6P0.4
1765,,0.81,In0.4Ga0.6As1
1766,,2.05,In0.4Ga0.6P1
1767,,2.15,In0.4Ga1.6Cu1S3.5
1768,,0.75,In0.5Ga0.5As1
1769,,1.9,In0.5Ga0.5P1
1770,,1.25,In0.6Ga0.4As0.6P0.4
1771,,0.55,In0.72Ga0.28As1
1772,,1.58,In0.7Ga0.3As0.3P0.7
1773,,1.4,In0.8Ga0.2As0.2P0.8
1774,,0.85,In0.8Ga0.2As0.8P0.2
1775,,0.5,In0.8Ga0.2As1
1776,,1.3,In0.99Ga0.01As0.01P0.99
1777,,0.3,In0.99Ga0.01As0.99P0.01
1778,,1.32,In0.9Ga0.1As0.1P0.9
1779,,0.45,In0.9Ga0.1As0.9P0.1
1780,,1.08,In1.01Cu0.99Se2.01
1781,,1.07,In1.05Cu0.95Se2.05
1782,,1.06,In1.1Cu0.9Se2.1
1783,,1.1,In1.3Cu0.7Se2.3
1784,,1.24,In1.5Cu0.5Se2.5
1785,,1.19,In1.65Cu0.35Se2.65
1786,,1.32,In1.6Cu0.4Se2.6
1787,,1.55,In1.6Ga0.4Cu1S3.5
1788,,1.21,In1.7Cu0.3Se2.7
1789,,1.32,In1.85Cu0.15Se2.85
1790,,1.26,In1.8Cu0.2Se2.8
1791,,1.45,In1.99Cu0.01Se2.99
1792,,1.45,In1.9Cu0.1Se2.9
1793,,1.45,In11.3Bi14.7S38
1794,,0.0,In11Cu9Se20
1795,,0.94,In1Ag1.75Sb5.75Se11
1796,,1.84,In1Ga1Cu1S3.5
1797,,1.71,In1Hg4As2.5Br3.5
1798,,0.17,In1Sb0.01As0.99
1799,,0.14,In1Sb0.1As0.9
1800,,0.12,In1Sb0.2As0.8
1801,,0.11,In1Sb0.3As0.7
1802,,0.1,In1Sb0.4As0.6
1803,,0.1,In1Sb0.5As0.5
1804,,0.13,In1Sb0.6As0.4
1805,,0.16,In1Sb0.7As0.3
1806,,0.21,In1Sb0.8As0.2
1807,,0.35,In1Sb0.99As0.01
1808,,0.27,In1Sb0.9As0.1
1809,mp-1191856,4.62,In2As2Cl2O5
1810,mp-1198577,5.39,In2B(PO4)3
1811,mp-1198248,1.38,In2Bi3Se7I
1812,mp-20296,0.0,In2Co
1813,,1.43,In2Cu1S3.5
1814,,1.15,In2FeSe4
1815,,0.68,In2GeTe3
1816,,3.13,In2Hg6(P2Cl3)3
1817,mp-22356,2.0,In2HgS4
1818,mp-20731,0.6,In2HgSe4
1819,mp-22598,2.8,In2O3
1820,mp-22682,0.0,In2Pt
1821,mp-22216,2.0,In2S3
1822,mp-1199125,2.97,In2Se2O7
1823,,0.46,In2Te
1824,,0.68,In3AgTe5
1825,mp-510099,0.0,In3Au10
1826,mp-651005,0.0,In3Bi7(Pb2S9)2
1827,,1.2,In3CuS5
1828,,0.6,In3CuSe5
1829,mp-22146,0.0,In3Pd5
1830,,0.0,In3Sb
1831,mp-1200791,4.22,In4As5(BrO4)3
1832,,1.42,In4Bi3S10
1833,,1.1,In4Cu2Te7
1834,,0.9,In4S5
1835,mp-19932,0.64,In4Se3
1836,,1.76,In5AgS8
1837,mp-569813,0.47,In5AgTe8
1838,,1.34,In5CuS8
1839,,0.14,In5Se6
1840,,1.5,In9AgTe14
1841,mp-30343,0.0,InAg3
1842,mp-22660,4.2,InAgO2
1843,mp-22386,0.93,InAgTe2
1844,,0.41,InAsI
1845,mp-569683,0.0,InAu3
1846,,1.5,InBi2S4Br
1847,mp-559521,1.5,InBi2S4Cl
1848,mp-571169,1.21,InBi2Se4Br
1849,,1.3,InCuGeSe4
1850,mp-22736,1.5,InCuS2
1851,mp-22611,0.0,InFe2CuSe4
1852,mp-1196151,2.54,InHg7S6Cl5
1853,,0.0,InHgW2
1854,mp-20790,3.12,InPS4
1855,mp-510438,0.0,InPt
1856,,0.0,InPt3C
1857,mp-559864,1.8,InSb2S4Br
1858,mp-556541,1.8,InSb2S4Cl
1859,mp-570321,1.35,InSb2Se4Br
1860,,0.0,InSiIr
1861,mp-567931,0.0,InSiTe3
1862,,0.2,InSn2As2Se
1863,,0.26,InSnAsSe
1864,,2.0,Ir0.67S2
1865,,0.45,Ir0.67Se2
1866,,0.0,IrPb
1867,mp-2833,0.9,IrS2
1868,mp-1361,0.9,IrSe2
1869,,1.2,IrSeS
1870,mp-4668,0.0,K(CoSe)2
1871,mp-35276,0.0,K(FeAs)2
1872,mp-639900,1.8,K(GeSe2)2
1873,mp-554461,0.0,K(OsO3)2
1874,,2.78,K0.8Sn2Hg1.2S8
1875,,0.53,K1.25Bi7.25Pb3.5Se15
1876,,0.39,K1.46Sn3.09Bi7.45Se15
1877,,1.37,K1.83Cd1.83Bi2.17S6
1878,,2.2,K10Fe4Sn4S17
1879,,2.3,K10Mn4Sn4S17
1880,,1.82,K10Sn3(PSe3)8
1881,,3.34,K10Zn4Ge4S17
1882,,0.0,K11Mn4O16
1883,,0.6,K2.15Sb8.15Pb1.7Se15
1884,,2.2,K2Ag3Sb3S7
1885,,1.8,K2AgSnSe4
1886,mp-560217,6.89,K2Al2B2O7
1887,mp-1195201,2.65,K2Au(IO3)5
1888,,0.0,K2B10H9O
1889,,1.77,K2BaNb2S11
1890,,2.58,K2Cd(PSe3)2
1891,mp-571637,1.93,K2Cd2Te3
1892,mp-18101,2.75,K2Cd3S4
1893,mp-1198419,2.36,K2Cd3Se4
1894,mp-18531,2.26,K2Cd3Te4
1895,mp-1195550,2.46,K2Ce(PO4)2
1896,,3.38,K2Dy2Ti3O10
1897,mp-1200819,1.95,K2FeGe3Se8
1898,mp-10973,1.72,K2Ga3CuSe6
1899,mp-1199482,1.33,K2Gd2Sb2Se9
1900,,3.3,K2Gd2Ti3O10
1901,mp-561132,2.85,K2Ge2PbS6
1902,mp-560019,5.38,K2Ge3(BO5)2
1903,mp-568855,2.25,K2Hg(PSe3)2
1904,mp-17792,2.64,K2Hg3(GeS4)2
1905,,2.28,K2Hg3Se1.31S2.69
1906,,2.11,K2Hg3Se2.97S1.03
1907,mp-1172870,2.43,K2Ho4Cu4S9
1908,mp-1199715,2.2,K2In2P3Se10
1909,mp-21705,1.64,K2In3AgSe6
1910,mp-21713,1.68,K2In3CuSe6
1911,,2.2,K2La2Sb2S9
1912,mp-6548,3.05,K2La2Ti3O10
1913,mp-669410,2.0,K2Mn(SnSe3)2
1914,mp-29861,0.0,K2Mn3S4
1915,mp-628305,1.7,K2MnSnSe4
1916,mp-1195788,3.3,K2Mo2Se2O11
1917,mp-9763,2.82,K2NbCuS4
1918,mp-9003,2.14,K2NbCuSe4
1919,,0.0,K2NbO6
1920,,3.25,K2Nd2Ti3O10
1921,mp-9509,2.63,K2PAuS4
1922,,1.48,K2PdSe10
1923,,1.2,K2RbSb
1924,mp-29877,5.71,K2ReH9
1925,mp-23471,0.0,K2RuCl6
1926,mp-1022,2.1,K2S
1927,,1.31,K2Sb8Se3
1928,mp-8426,1.8,K2Se
1929,,3.26,K2Sm2Ti3O10
1930,mp-555587,2.59,K2SmP2S7
1931,mp-557121,2.75,K2Sn(AuS2)2
1932,mp-1195395,2.3,K2Sn3(SbS5)2
1933,,0.33,K2Ta15O32
1934,mp-1747,1.9,K2Te
1935,mp-27688,1.38,K2TeI6
1936,mp-555425,2.17,K2Th(CuS2)2
1937,,2.04,K2Ti(CuS2)2
1938,mp-8900,1.85,K2VAgS4
1939,mp-15147,1.82,K2VCuS4
1940,mp-1195072,1.71,K2Zn(SnSe3)2
1941,mp-12535,3.0,K2ZnTe2
1942,mp-541447,0.0,K3(FeS2)2
1943,mp-1189091,6.89,K3B6ClO10
1944,,2.1,K3Bi2I9
1945,mp-1204785,3.47,K3Cd(BO2)5
1946,mp-559251,1.35,K3Cr2(PS4)3
1947,,3.25,K3Ga3Ge7S20
1948,,2.23,K3Ga3Ge7Se20
1949,,0.0,K3Hg
1950,,0.0,K3LiNb6O15
1951,mp-628185,2.2,K3NaSn3Se8
1952,mp-542545,1.53,K3Nb2AsSe11
1953,mp-560964,2.2,K3Sm(AsS4)2
1954,,0.0,K3Sn
1955,,2.21,K3Ta2AsS11
1956,mp-683905,1.45,K3Ta2AsSe11
1957,mp-638086,2.49,K3Th2Cu3S7
1958,,1.61,K3Ti2P5S18
1959,,0.0,K3UF3
1960,,0.0,K3V
1961,,1.81,K4(ZrSe5)3
1962,,2.0,K4Ag9(SbS3)4
1963,,1.4,K4Al4Si19
1964,,0.0,K4C2O3
1965,,2.46,K4Ce3Sn3S14
1966,,1.18,K4Ga4Si19
1967,mp-1195433,2.0,K4Ge(PSe3)4
1968,mp-556627,0.8,K4GeS4
1969,mp-568847,0.64,K4GeSe4
1970,,2.02,K4Hf3Se14
1971,mp-1199321,2.2,K5In3P6Se19
1972,mp-6296,2.33,K6Cd4Sn3Se13
1973,mp-17698,2.51,K6CdTe4
1974,,2.01,K6Ta1.03Nb2.97S25
1975,,1.88,K6Ta2.93Nb1.07S22
1976,mp-683975,2.6,K6Yb3(PS4)5
1977,,2.34,K8Ce2I18O53
1978,,0.0,K8N3O
1979,,1.4,K9Bi13S24
1980,mp-12735,0.0,KAg2
1981,,2.25,KAg2AsS3
1982,mp-12532,3.02,KAg2PS4
1983,mp-1192667,2.1,KAg2SbS3
1984,mp-9490,2.2,KAg2SbS4
1985,,2.21,KAgAsS2
1986,mp-1205357,0.0,KAgF3
1987,mp-3074,0.0,KAgO
1988,,3.5,KAlGeS4
1989,mp-14659,1.62,KAsSe2
1990,mp-557441,2.75,KAu(IO3)4
1991,,3.1,KB5PbO9
1992,mp-1191826,2.26,KBaAsSe3
1993,mp-557420,3.65,KBaB5O9
1994,mp-1190698,2.04,KBaSbSe3
1995,mp-23279,0.0,KBi2
1996,,1.21,KBi3S5
1997,mp-29799,0.0,KBiO3
1998,,0.86,KBiS2
1999,,0.61,KBiSe2
2000,mp-23251,7.6,KBr
2001,,0.0,KC60
2002,,2.16,KCd4Ga5Se12
2003,mp-22395,1.54,KCeSe4
2004,mp-23193,8.5,KCl
2005,mp-20528,0.0,KCoO2
2006,mp-1194436,1.29,KCu2BiS3
2007,mp-9868,1.46,KCu3S2
2008,mp-557728,1.9,KCu4AsS4
2009,mp-649472,0.0,KCuPO4
2010,,1.47,KCuSnS3
2011,,1.04,KCuSnSe3
2012,mp-867419,1.89,KEuAsS4
2013,mp-1018137,0.0,KEuS2
2014,mp-463,10.3,KF
2015,,1.76,KFe2BiO5
2016,,1.06,KFeCuTe2
2017,,2.6,KGaSe2
2018,,1.73,KGaSnSe4
2019,,0.0,KH(CN2)3
2020,mp-11462,0.0,KHg
2021,mp-11952,0.0,KHg11
2022,mp-30717,0.0,KHg2
2023,mp-1195253,4.0,KIn(TeO3)2
2024,,3.1,KInGeS4
2025,mp-505412,3.0,KInS2
2026,mp-505700,2.68,KInSe2
2027,,2.3,KInSnS4
2028,,0.0,KLi(WO3)3
2029,mp-562137,6.32,KLiCO3
2030,,0.0,KLu
2031,,0.0,KMo6S7
2032,,0.0,KNb2O5
2033,,0.0,KNb2Se
2034,mp-1202434,3.46,KNb3(SeO6)2
2035,mp-1202170,3.52,KNb3(TeO6)2
2036,,4.0,KNbSe2O7
2037,mp-23959,6.95,KP(HO2)2
2038,,2.14,KPAu5S8
2039,,4.44,KPPbO4
2040,mp-569702,2.08,KPSe3
2041,mp-18625,2.16,KPSe6
2042,,0.64,KRbBi8Se13
2043,mp-14005,0.0,KRuO4
2044,mp-1536,0.9,KSb
2045,mp-1195296,4.64,KSb(SO4)2
2046,,5.4,KSc(SeO3)2
2047,,0.0,KScO3
2048,,1.72,KSi2P3
2049,mp-866651,2.25,KSiBiS4
2050,mp-11604,2.17,KSm2CuS4
2051,,2.3,KSnAuS3
2052,,2.28,KSnAuSe3
2053,mp-1200554,4.06,KTa3(TeO6)2
2054,,0.0,KTa3CuO9
2055,mp-3614,3.5,KTaO3
2056,,1.65,KTbSe4
2057,mp-1188829,1.4,KTeP2
2058,mp-12365,2.95,KThCuS3
2059,mp-976271,6.4,KTi2F7
2060,mp-976257,0.0,KTi5Se8
2061,,0.0,KTm
2062,mp-1095429,2.37,KUClO3
2063,mp-582421,0.0,KUCuSe3
2064,,2.3,KV2I3O13
2065,mp-553910,2.0,KV4Ag11O16
2066,mp-17353,0.0,KV6O11
2067,mp-1194980,3.8,KY(TeO3)2
2068,,0.0,KYb2F7
2069,,0.0,KYbSe2
2070,mp-6652,2.32,KZn4(BO3)3
2071,mp-639149,2.0,KZrPSe6
2072,mp-22470,0.0,La(FeAs3)4
2073,mp-21523,0.0,La(In2Au)2
2074,,1.03,La(InS2)3
2075,mp-14325,0.0,La(Ni2B)6
2076,mp-9886,0.0,La(PRu)2
2077,mp-567203,0.0,La(SiOs)2
2078,mp-5105,0.0,La(SiRu)2
2079,,2.67,La1.86Tb1.14Ga1.67S7
2080,,0.0,La10Mn9O30
2081,mp-558535,2.04,La10Se14O
2082,mp-555465,0.0,La10Si8O3
2083,,0.0,La16Mn15O48
2084,,2.5,La1Se0.14S1.86
2085,,1.0,La2.1Bi5.9Pb2S14
2086,,0.0,La20Cu9O40
2087,,2.4,La20Mo12Cl4O63
2088,mp-14696,0.0,La2B4Rh5
2089,mp-1077929,0.0,La2CuO4
2090,mp-1078132,0.7,La2Fe(SeO)2
2091,,0.0,La2Fe2I
2092,,1.76,La2Ga0.33Sb1S5
2093,,2.78,La2Ga2GeS8
2094,,1.08,La2Ge2Se7
2095,mp-621659,0.0,La2Ge5Ir3
2096,mp-18055,0.0,La2Ge5Rh3
2097,,1.24,La2GeSe5
2098,mp-1197947,0.7,La2HfS5
2099,mp-20760,0.0,La2In
2100,mp-1196301,1.6,La2Mn(SeO)2
2101,,0.0,La2Nb2N2O5
2102,mp-3471,0.0,La2Ni5B4
2103,mp-2292,5.4,La2O3
2104,,0.0,La2PC
2105,mp-571647,0.0,La2PI2
2106,mp-8672,0.0,La2PdO4
2107,,0.0,La2Pr2O7
2108,mp-568375,0.0,La2Rh7
2109,mp-7475,2.77,La2S3
2110,mp-8620,0.0,La2Si5Rh3
2111,mp-30755,0.0,La2Sn5Rh3
2112,,1.02,La2TiCoO6
2113,,3.63,La2V2IO9
2114,,0.41,La2VCoO6
2115,,0.45,La2VNiO6
2116,,1.45,La2YbCuS5
2117,,1.15,La2YbCuSe5
2118,mp-1196943,3.4,La2Zn(SeO)2
2119,mp-1198687,2.01,La2ZrS5
2120,mp-569935,0.0,La3(BN2)2
2121,mp-27330,0.0,La3(OsO5)2
2122,mp-29326,0.0,La3(ReO5)2
2123,mp-4505,0.0,La3AlN
2124,mp-510011,2.0,La3CuGeSe7
2125,,2.54,La3Ga1Ge0.5S7
2126,,1.36,La3GaCuSe7
2127,mp-672231,0.0,La3Ge3Br2
2128,,2.61,La3In1Ge0.5S7
2129,mp-645695,1.26,La3LuSe6
2130,,1.71,La3Mg0.5Sn1S14
2131,mp-1198818,3.7,La3Mo4O16F
2132,mp-866714,0.0,La3NiBr3
2133,,1.92,La3Si1Sb0.33S7
2134,,1.75,La3Si1Sb0.33Se7
2135,mp-879,0.43,La3Te4
2136,mp-9435,0.0,La3ZrSb5
2137,mp-1196490,2.27,La4Cd4In2S13
2138,mp-1203869,0.0,La4Co3O10
2139,mp-1203562,1.0,La4Fe(SbS5)2
2140,mp-1200263,0.85,La4Fe(SbSe5)2
2141,mp-21571,0.0,La4In5S13
2142,mp-1196663,2.07,La4InSbS9
2143,,1.76,La4InSbSe9
2144,,2.0,La5Cu6.33S7O4
2145,,2.6,La5In3(S3O)3
2146,,0.0,La5SmS8
2147,,0.0,La5YbS8
2148,,2.6,La6Sb4(SO4)3
2149,,0.0,La8Mn7O24
2150,mp-1195582,2.3,La8Sb2S15
2151,,0.0,LaAl12O19
2152,mp-21109,0.0,LaAl4
2153,mp-12274,0.0,LaAl4Co
2154,mp-2680,4.1,LaB6
2155,,0.0,LaBPt3
2156,,5.65,LaBeB3O7
2157,,0.0,LaBiAu2
2158,mp-12055,0.0,LaCd2
2159,,0.0,LaCdAg2
2160,mp-542251,0.0,LaCdAu
2161,mp-30590,0.0,LaCu6
2162,mp-6088,3.1,LaCuSO
2163,mp-552488,2.83,LaCuSeO
2164,mp-546790,2.31,LaCuTeO
2165,mp-905,6.6,LaF3
2166,mp-1002133,0.0,LaGa
2167,mp-21201,0.0,LaGa3Pd2
2168,mp-5837,4.4,LaGaO3
2169,mp-4816,2.5,LaGaS3
2170,mp-568574,0.0,LaGeI
2171,mp-24153,0.0,LaH2
2172,,4.76,LaH2NO5
2173,mp-734,0.0,LaHg
2174,mp-20582,0.0,LaIn
2175,mp-22017,0.0,LaIn2Ir
2176,mp-20911,0.0,LaIn5Ir
2177,,2.73,LaInS2O
2178,,0.0,LaMg(FeO3)2
2179,mp-1180682,1.0,LaMg2H7Pd
2180,mp-2306,0.0,LaMg3
2181,,1.7,LaNbN2O
2182,mp-2384,0.54,LaP
2183,,0.0,LaP3
2184,mp-2889,0.0,LaPd3S4
2185,mp-1832,0.0,LaPt5
2186,,0.0,LaRe2Ag
2187,,0.0,LaReB
2188,mp-1065,0.8,LaSb
2189,mp-1024951,0.0,LaScSi
2190,mp-7083,0.0,LaSi
2191,mp-2062,0.19,LaSi2
2192,mp-28795,0.0,LaSi2Ru
2193,mp-30756,0.0,LaSn3Ru
2194,mp-550514,2.0,LaTaN2O
2195,,0.0,LaTb3
2196,,0.0,LaV
2197,mp-1202389,3.58,LaVI5O16
2198,,0.0,LaYbZn2
2199,mp-549589,1.5,LaZnAsO
2200,,0.0,LaZnAu2
2201,,0.0,Li(CuO)3
2202,,0.0,Li(NiO2)4
2203,,2.7,Li0.33Ag1Sn0.67O2
2204,,2.7,Li0.33Ti0.67Ag1O2
2205,,1.95,Li0.5Ge1Pb1.75S4
2206,,0.0,Li11Mn13O32
2207,,0.0,Li12Fe5O16
2208,,0.0,Li13Nb14ZnO42
2209,,0.0,Li13Ti22O48
2210,,0.0,Li14Ti21O48
2211,,0.0,Li15(FeO4)4
2212,,0.0,Li15Mn2O12
2213,,0.0,Li17Nb20O60
2214,,0.0,Li17Ti20O40
2215,,0.0,Li2(FeO2)5
2216,mp-3440,0.0,Li2(LuGe)3
2217,,0.0,Li2(NiO2)3
2218,,0.0,Li23(MnAs)20
2219,mp-4779,7.3,Li2B4O7
2220,mp-10686,0.99,Li2CdGe
2221,mp-1189383,3.1,Li2CdGeS4
2222,mp-1188784,3.26,Li2CdSnS4
2223,,0.0,Li2Co4O7F
2224,,0.0,Li2CrCo3O8
2225,,0.0,Li2CrCuO4
2226,,0.0,Li2Cu2S3
2227,,0.0,Li2CuF6
2228,,0.0,Li2DyIn
2229,,0.0,Li2EuSn
2230,,0.0,Li2Fe2(PO4)3
2231,,0.0,Li2Fe3CoO8
2232,,0.0,Li2Fe3NiO8
2233,,0.0,Li2Fe3SnO8
2234,mp-1105387,1.42,Li2FeGeS4
2235,mp-1105173,1.86,Li2FeSnS4
2236,,0.0,Li2FeWO6
2237,mp-29210,0.0,Li2Ga
2238,,2.64,Li2Ga(GeSe3)2
2239,mp-554782,3.65,Li2Ga2GeS6
2240,mp-3201,0.0,Li2GaPd
2241,mp-16341,0.93,Li2HgGe
2242,,2.46,Li2HgGeS4
2243,mp-1191476,3.45,Li2In2GeS6
2244,mp-1191200,2.3,Li2In2GeSe6
2245,mp-1191903,3.61,Li2In2SiS6
2246,mp-1191817,2.54,Li2In2SiSe6
2247,mp-30344,0.0,Li2InAg
2248,,0.0,Li2LaTl
2249,,0.0,Li2MgHg
2250,mp-12128,0.0,Li2MgIn
2251,,0.0,Li2MgSn
2252,,0.0,Li2MnCo3O8
2253,,0.0,Li2MnCu3O8
2254,,3.06,Li2MnGeS4
2255,,0.0,Li2MnNi3O8
2256,,0.0,Li2MnO2F
2257,,3.3,Li2Mo2Se2O11
2258,,0.0,Li2Nb2(PO4)3
2259,mp-7779,0.0,Li2NdAs2
2260,mp-20106,0.0,Li2NdSb2
2261,,0.0,Li2Ni2SbO6
2262,,0.0,Li2Ni3TeO8
2263,,0.0,Li2Ni5(PO4)4
2264,,0.0,Li2PmAl
2265,,0.0,Li2PmGe
2266,,0.0,Li2PrIn
2267,mp-7777,0.0,Li2PrP2
2268,,2.3,Li2PtO3
2269,,0.0,Li2Si4Ni5O14
2270,,2.68,Li2SiHgS4
2271,mp-7924,0.0,Li2Sn5
2272,,2.32,Li2SnHgS4
2273,,0.0,Li2SnIr
2274,mp-1203622,3.5,Li2TeMoO6
2275,mp-1196881,4.0,Li2TeWO6
2276,,0.0,Li2Ti3FeO8
2277,,0.0,Li2TiMn3O8
2278,,0.0,Li2TlAg
2279,mp-560793,0.0,Li2U(MoO5)2
2280,,0.0,Li2V2F7
2281,,0.0,Li2V3CrO8
2282,,0.0,Li2V3FeO8
2283,,0.0,Li2YbPb
2284,mp-569115,1.1,Li2ZnGe
2285,,1.86,Li2ZnGeSe4
2286,mp-555186,2.87,Li2ZnSnS4
2287,,1.87,Li2ZnSnSe4
2288,,0.0,Li3(CoO2)4
2289,,0.0,Li3(CuO)4
2290,mp-545467,0.0,Li3(CuO2)2
2291,,2.75,Li3AlP2
2292,,3.63,Li3AlTe4O11
2293,mp-23222,0.7,Li3Bi
2294,,0.0,Li3C
2295,,0.0,Li3Co(NiO2)4
2296,,0.0,Li3Co2(GeO4)3
2297,,0.0,Li3Co3SbO8
2298,,0.0,Li3Co4TeO8
2299,,0.0,Li3Cr(NiO2)4
2300,,0.0,Li3Cr3(CuO6)2
2301,,0.0,Li3CrCo3O8
2302,,0.0,Li3CrO4
2303,,0.0,Li3Cu4NiO8
2304,,0.0,Li3Dy
2305,,0.0,Li3Fe(CoO2)4
2306,,0.0,Li3Fe(SbO3)4
2307,,0.0,Li3Fe2SbO6
2308,,0.0,Li3FeNi3O8
2309,,0.0,Li3FeS3
2310,,1.98,Li3FeTe4O11
2311,,3.85,Li3GaTe4O11
2312,,0.0,Li3Mn(CuO3)2
2313,,0.0,Li3Mn(NiO3)2
2314,,0.0,Li3Mn2(CoO4)2
2315,,0.0,Li3Mn2(PO4)3
2316,,0.0,Li3Mn2CuO6
2317,,0.0,Li3Mn3NiO8
2318,,0.0,Li3Mn3WO8
2319,,0.0,Li3Mn4(PO4)6
2320,,0.0,Li3Mn4O8
2321,,0.0,Li3MnAs2
2322,,0.0,Li3Mo2P5O18
2323,,0.0,Li3Ni(SbO3)4
2324,,0.0,Li3Ni2(GeO4)3
2325,,0.0,Li3Ni3(PO4)4
2326,,3.68,Li3PS4
2327,mp-542435,2.9,Li3ScN2
2328,mp-29165,0.0,Li3Si3Ag2
2329,,0.0,Li3Ti2(PO4)3
2330,,0.0,Li3Ti3(PO4)4
2331,,0.0,Li3V12O29
2332,,0.0,Li3V4FeO12
2333,,0.0,Li3V4NiO12
2334,,0.0,Li3VOF5
2335,,0.0,Li4(FeO2)9
2336,,4.9,Li4.5Al0.5Te1O6
2337,,1.79,Li4.5Cr0.5Te1O6
2338,,3.25,Li4.5Fe0.5Te1O6
2339,,4.99,Li4.5Ga0.5Te1O6
2340,,1.97,Li4.5Mn0.5Te1O6
2341,,0.0,Li4Co2Ni3O10
2342,,0.0,Li4Co3CuO8
2343,,0.0,Li4Co5SbO12
2344,,0.0,Li4Cr3NiO8
2345,,0.0,Li4CrO5
2346,,0.0,Li4Cu(PO4)2
2347,,0.0,Li4Fe2Cu3O10
2348,,0.0,Li4Fe3NiO8
2349,,0.0,Li4Fe7(OF7)2
2350,,0.0,Li4FeNi3O8
2351,,2.75,Li4HgGe2S7
2352,,0.0,Li4MgNi3O8
2353,,0.0,Li4Mn(WO4)3
2354,,0.0,Li4Mn3Cr3O12
2355,,0.0,Li4Mn5Cu3O16
2356,,0.0,Li4Mn5Nb3O16
2357,,0.0,Li4Mn5NbO12
2358,,0.0,Li4Mn5Ni3O16
2359,,0.0,Li4NbNi3O8
2360,,0.0,Li4Ni2(PO4)3
2361,,0.0,Li4Ni3BiO8
2362,,0.0,Li4Ti5Cr3O16
2363,,0.0,Li4TiCr3O8
2364,,0.0,Li4V5Cu3O16
2365,,0.0,Li4VF7
2366,mp-555377,0.0,Li4WO5
2367,,0.0,Li5(BiO3)4
2368,,0.0,Li5Co2Ni3O10
2369,,0.0,Li5Co2O2F5
2370,,0.0,Li5Cr2Ni5O12
2371,,0.0,Li5Fe2Ni3O10
2372,,0.0,Li5Fe6(BO3)6
2373,,0.0,Li5La3Nb14O42
2374,,0.0,Li5Mn2Cu5O12
2375,,0.0,Li5Mn3(FeO5)2
2376,,0.0,Li5Mn5(SbO6)2
2377,,0.0,Li5Mn6(BO3)6
2378,,0.0,Li6(NiO2)5
2379,,0.0,Li6Fe3Co7O20
2380,,0.0,Li6Fe9CoO20
2381,,0.0,Li6FeNi9O20
2382,,0.0,Li6FeO5F
2383,,0.0,Li6FeO6
2384,,0.0,Li6Mn5CoO12
2385,,0.0,Li6Mn5FeO12
2386,mp-562387,0.0,Li6Tb2O7
2387,,0.0,Li7(Mo3S4)4
2388,,0.0,Li7(NiO2)11
2389,,0.0,Li7Ca8Nb12O40
2390,,0.0,Li7Ti16O32
2391,,0.0,Li7Ti5O12
2392,,0.0,Li7Ti7O16
2393,,0.0,Li8BiS6
2394,,2.61,Li8GeN4
2395,mp-8469,0.0,Li8IrO6
2396,,0.0,Li8PO3
2397,mp-8424,0.0,Li8PrO6
2398,,0.0,Li8Ti16CuS32
2399,,0.0,Li8TiNi7O16
2400,,0.0,Li9Fe3(WO4)7
2401,,4.45,Li9Ga13(Te7O22)3
2402,,0.0,LiAgF3
2403,mp-30821,0.0,LiAl2Rh
2404,,0.0,LiAl2Tc
2405,mp-10890,0.0,LiAl3
2406,,0.0,LiAlB4
2407,mp-5920,0.0,LiAlGe
2408,,0.0,LiAlRh2
2409,mp-555874,1.6,LiAsS2
2410,,2.0,LiB3
2411,,4.75,LiB9PbO15
2412,,0.0,LiBePt2
2413,,0.0,LiBi2(PO4)3
2414,,3.35,LiBi3(ClO2)2
2415,,0.11,LiBiS2
2416,,0.0,LiCa2Ga
2417,mp-504670,0.0,LiCa2Ge3
2418,,0.0,LiCa2In
2419,,0.0,LiCa2Mg
2420,mp-1192528,1.4,LiCa3As2H
2421,,0.0,LiCaO3
2422,,0.0,LiCd2Rh
2423,mp-6126,4.28,LiCdBO3
2424,mp-22905,9.33,LiCl
2425,,0.0,LiCo(CO3)2
2426,,0.0,LiCo7O7F
2427,,0.0,LiCoS2
2428,,0.0,LiCu2(CO3)2
2429,mp-567097,0.0,LiCu2Ge
2430,,0.0,LiCu3F7
2431,,0.0,LiCu5P3O13
2432,mp-9158,0.0,LiCuO2
2433,,0.0,LiCuPO4
2434,,0.0,LiEr2Ga
2435,,0.0,LiErAu2
2436,mp-541365,1.5,LiEuH3
2437,mp-1138,11.7,LiF
2438,,0.0,LiFe2(PO4)3
2439,,0.0,LiFe2(SiO4)2
2440,,2.64,LiGa(GeSe3)2
2441,,0.0,LiGaAg2
2442,,0.0,LiGaAu2
2443,mp-5854,5.6,LiGaO2
2444,,0.0,LiGaPd2
2445,,0.0,LiGaPt2
2446,mp-5048,2.31,LiGaTe2
2447,,3.73,LiGd5P2O13
2448,mp-13322,0.0,LiGeRh2
2449,mp-696288,4.9,LiH3(SeO3)2
2450,,0.0,LiHf2Ir
2451,,0.0,LiHfPd2
2452,,0.0,LiHg2Pd
2453,,0.0,LiHoAu2
2454,,0.0,LiHoO3
2455,mp-973966,4.27,LiIn(IO3)4
2456,mp-13396,0.0,LiIn2Rh
2457,mp-567787,0.0,LiInAg2
2458,mp-1188392,3.56,LiInS2
2459,mp-20187,2.83,LiInSe2
2460,mp-568466,0.0,LiInSn
2461,,2.3,LiInSnS4
2462,mp-20782,1.46,LiInTe2
2463,mp-11992,0.0,LiLa2IrO6
2464,,0.0,LiLu2Ga
2465,,0.0,LiLu2Pd
2466,,0.0,LiLu2Ru
2467,,0.0,LiLu2Tc
2468,,0.0,LiMg2Ag
2469,mp-12558,0.7,LiMgAs
2470,mp-570213,0.4,LiMgBi
2471,mp-30156,3.2,LiMgN
2472,mp-7555,0.0,LiMgSnPd
2473,,0.0,LiMn(PO4)2
2474,,0.0,LiMn2(PO4)2
2475,mp-1195443,0.0,LiMn4O8
2476,,0.0,LiMn9Se10
2477,,0.0,LiMnCoO4
2478,,0.0,LiMnCuO4
2479,mp-556415,0.0,LiMnO2
2480,mp-26981,0.0,LiMnP2O7
2481,,0.0,LiMnSiO4
2482,,0.0,LiMo3O8
2483,mp-558917,2.8,LiMoIO6
2484,,3.0,LiNb3(BiO3)4