,formula,expt_form_e,uncertainty,phaseinfo,reference,likely_mpid
760,Na4SiO4,-2.4197114890820086,0.028904796485797843,monocl,"O. Kubaschewski, C. Alcock, P. Spencer, Materials Thermochemistry, 6th ed., Oxford, Pergamom Press, 1993.",mp-7500
763,NaAlCl4,-1.9730632882453907,,cr,https://janaf.nist.gov/tables/Al-030.html,mp-23363
765,NaAlO2,-2.9361716829449334,,cr,https://janaf.nist.gov/tables/Al-073.html,mp-9212
767,NaB3O5,-2.6374072152842087,,cr,https://janaf.nist.gov/tables/B-130.html,mp-556226
768,NaBF4,-3.1864947058178053,0.005700348310944195,orth,"O. Kubaschewski, C. Alcock, P. Spencer, Materials Thermochemistry, 6th ed., Oxford, Pergamom Press, 1993.",mp-3521
769,NaBO2,-2.528104475903751,0.006477668535163858,hex,"O. Kubaschewski, C. Alcock, P. Spencer, Materials Thermochemistry, 6th ed., Oxford, Pergamom Press, 1993.",mp-3889
771,NaBr,-1.8723053134037617,0.002072853931252435,cubic,"O. Kubaschewski, C. Alcock, P. Spencer, Materials Thermochemistry, 6th ed., Oxford, Pergamom Press, 1993.",mp-22916
774,NaCN,-0.3133775120832952,,cr,https://janaf.nist.gov/tables/C-083.html,mp-30053
775,NaCl,-2.131412054810316,0.002072853931252435,cubic,"O. Kubaschewski, C. Alcock, P. Spencer, Materials Thermochemistry, 6th ed., Oxford, Pergamom Press, 1993.",mp-22862
777,NaClO3,-0.7414598512089958,0.002694710110628165,cubic,"O. Kubaschewski, C. Alcock, P. Spencer, Materials Thermochemistry, 6th ed., Oxford, Pergamom Press, 1993.",mp-23330
779,NaClO4,-0.6611574899122766,,cr,https://janaf.nist.gov/tables/Cl-057.html,mp-22968
780,NaCrO2,-2.271070588428449,0.011918910104701499,hex,"O. Kubaschewski, C. Alcock, P. Spencer, Materials Thermochemistry, 6th ed., Oxford, Pergamom Press, 1993.",mp-578604
782,NaF,-2.9817174659493775,,cr,https://janaf.nist.gov/tables/F-033.html,mp-682
783,NaFeO2,-1.8093423752419688,0.015287297742986707,orth,"O. Kubaschewski, C. Alcock, P. Spencer, Materials Thermochemistry, 6th ed., Oxford, Pergamom Press, 1993.",mp-19359
784,NaH,-0.2927906177894064,0.002072853931252435,cubic,"O. Kubaschewski, C. Alcock, P. Spencer, Materials Thermochemistry, 6th ed., Oxford, Pergamom Press, 1993.",mp-23870
786,NaHCO3,-1.6394547217930715,0.0013819026208349565,monocl,"O. Kubaschewski, C. Alcock, P. Spencer, Materials Thermochemistry, 6th ed., Oxford, Pergamom Press, 1993.",mp-696396
787,NaI,-1.4919366170189399,0.00414570786250487,cubic,"O. Kubaschewski, C. Alcock, P. Spencer, Materials Thermochemistry, 6th ed., Oxford, Pergamom Press, 1993.",mp-23268
789,NaNO3,-0.97051021061239,0.002694710110628165,hex,"O. Kubaschewski, C. Alcock, P. Spencer, Materials Thermochemistry, 6th ed., Oxford, Pergamom Press, 1993.",mp-4531
790,NaO2,-0.9006550331291828,0.01140069662188839,cubic,"O. Kubaschewski, C. Alcock, P. Spencer, Materials Thermochemistry, 6th ed., Oxford, Pergamom Press, 1993.",mp-1901
793,NaPO3,-2.5290890815210956,0.004352993255630113,rhomb,"O. Kubaschewski, C. Alcock, P. Spencer, Materials Thermochemistry, 6th ed., Oxford, Pergamom Press, 1993.",mp-555118
794,NaVO3,-2.470012744480401,0.021764966278150565,monocl,"O. Kubaschewski, C. Alcock, P. Spencer, Materials Thermochemistry, 6th ed., Oxford, Pergamom Press, 1993.",mp-19083
795,Nb2C,-0.6736775276570413,0.017273782760436954,none,"O. Kubaschewski, C. Alcock, P. Spencer, Materials Thermochemistry, 6th ed., Oxford, Pergamom Press, 1993.",mp-569989
796,Nb2N,-0.8743988833333187,0.02452877151982048,hex,"O. Kubaschewski, C. Alcock, P. Spencer, Materials Thermochemistry, 6th ed., Oxford, Pergamom Press, 1993.",
798,Nb2O5,-2.8124186017242856,0.006218561793757305,orth,"O. Kubaschewski, C. Alcock, P. Spencer, Materials Thermochemistry, 6th ed., Oxford, Pergamom Press, 1993.",mp-581967
802,NbBr5,-0.9605950593078991,0.0029365430692742823,orth,"O. Kubaschewski, C. Alcock, P. Spencer, Materials Thermochemistry, 6th ed., Oxford, Pergamom Press, 1993.",mp-28601
804,NbC,-0.7327538646977357,0.012955337070327717,cubic,"O. Kubaschewski, C. Alcock, P. Spencer, Materials Thermochemistry, 6th ed., Oxford, Pergamom Press, 1993.",mp-910
805,NbCl4,-1.4395970552548158,0.013058979766890338,orth,"O. Kubaschewski, C. Alcock, P. Spencer, Materials Thermochemistry, 6th ed., Oxford, Pergamom Press, 1993.",mp-31040
806,NbCl5,-1.3775841751448474,0.007254988759383522,monocl,"O. Kubaschewski, C. Alcock, P. Spencer, Materials Thermochemistry, 6th ed., Oxford, Pergamom Press, 1993.",mp-23307
809,NbF5,-3.133118717088055,0.007254988759383522,monocl,"O. Kubaschewski, C. Alcock, P. Spencer, Materials Thermochemistry, 6th ed., Oxford, Pergamom Press, 1993.",mp-18687
810,NbN,-1.2250566733701889,0.032647449417225846,cubic,"O. Kubaschewski, C. Alcock, P. Spencer, Materials Thermochemistry, 6th ed., Oxford, Pergamom Press, 1993.",mp-2634
811,NbO,-2.174941987366617,0.06529489883445169,hex,"O. Kubaschewski, C. Alcock, P. Spencer, Materials Thermochemistry, 6th ed., Oxford, Pergamom Press, 1993.",mp-2311
814,NbO2,-2.7465314589094763,0.029019955037534087,tetrag,"O. Kubaschewski, C. Alcock, P. Spencer, Materials Thermochemistry, 6th ed., Oxford, Pergamom Press, 1993.",mp-821
818,Nd2O3,-3.748341763883778,0.006840417973133034,cubic,"O. Kubaschewski, C. Alcock, P. Spencer, Materials Thermochemistry, 6th ed., Oxford, Pergamom Press, 1993.",mp-1045
819,Nd2S3,-2.3329970996246154,0.030263667396285547,orth,"O. Kubaschewski, C. Alcock, P. Spencer, Materials Thermochemistry, 6th ed., Oxford, Pergamom Press, 1993.",mp-438
820,NdCl3,-2.6962647510766042,0.005441241569537641,hex,"O. Kubaschewski, C. Alcock, P. Spencer, Materials Thermochemistry, 6th ed., Oxford, Pergamom Press, 1993.",mp-23183
821,NdF3,-4.43823937355287,0.019433005605491577,hex,"O. Kubaschewski, C. Alcock, P. Spencer, Materials Thermochemistry, 6th ed., Oxford, Pergamom Press, 1993.",mp-18511
822,NdH2,-0.6982062991768617,,cubic,"O. Kubaschewski, C. Alcock, P. Spencer, Materials Thermochemistry, 6th ed., Oxford, Pergamom Press, 1993.",mp-24096
823,NdI3,-1.6282267629987874,,rhomb,"O. Kubaschewski, C. Alcock, P. Spencer, Materials Thermochemistry, 6th ed., Oxford, Pergamom Press, 1993.",
824,NdS,-2.408656268115329,0.025910674140655433,tetrag,"O. Kubaschewski, C. Alcock, P. Spencer, Materials Thermochemistry, 6th ed., Oxford, Pergamom Press, 1993.",mp-1748
826,Ni2P,-0.6387844864809586,0.057694434419859435,hex,"O. Kubaschewski, C. Alcock, P. Spencer, Materials Thermochemistry, 6th ed., Oxford, Pergamom Press, 1993.",mp-21167
827,Ni3B,-0.23034589311042683,,orth,"O. Kubaschewski, C. Alcock, P. Spencer, Materials Thermochemistry, 6th ed., Oxford, Pergamom Press, 1993.",mp-2058
828,Ni3P,-0.570293937835826,0.027206207847688207,tetrag,"O. Kubaschewski, C. Alcock, P. Spencer, Materials Thermochemistry, 6th ed., Oxford, Pergamom Press, 1993.",mp-2296
829,Ni3S2,-0.4483583053299016,0.010364269656262174,hex,"O. Kubaschewski, C. Alcock, P. Spencer, Materials Thermochemistry, 6th ed., Oxford, Pergamom Press, 1993.",mp-362
832,Ni3S4,-0.4459597172094524,0.03716330976745437,cubic,"O. Kubaschewski, C. Alcock, P. Spencer, Materials Thermochemistry, 6th ed., Oxford, Pergamom Press, 1993.",mp-1050
835,Ni4B3,-0.2651772422052222,,orth,"O. Kubaschewski, C. Alcock, P. Spencer, Materials Thermochemistry, 6th ed., Oxford, Pergamom Press, 1993.",mp-640067
836,Ni5P2,-0.6455459385900439,0.024726186179939758,cryst,"O. Kubaschewski, C. Alcock, P. Spencer, Materials Thermochemistry, 6th ed., Oxford, Pergamom Press, 1993.",mp-1200923
837,NiAs,-0.3731137076254383,,hex,"O. Kubaschewski, C. Alcock, P. Spencer, Materials Thermochemistry, 6th ed., Oxford, Pergamom Press, 1993.",mp-590
839,NiBi,-0.03990243817660937,,hex,"O. Kubaschewski, C. Alcock, P. Spencer, Materials Thermochemistry, 6th ed., Oxford, Pergamom Press, 1993.",mp-999318
840,NiBr2,-0.7386269508362843,0.008636891380218477,hex,"O. Kubaschewski, C. Alcock, P. Spencer, Materials Thermochemistry, 6th ed., Oxford, Pergamom Press, 1993.",mp-27637
841,NiCO3,-1.4431209069379451,0.026117959533780676,hex,"O. Kubaschewski, C. Alcock, P. Spencer, Materials Thermochemistry, 6th ed., Oxford, Pergamom Press, 1993.",mp-19147
843,NiCl2,-1.0534589154280083,,cr,https://janaf.nist.gov/tables/Cl-099.html,mp-27396
844,NiF2,-2.272193384307877,0.007254988759383522,tetrag,"O. Kubaschewski, C. Alcock, P. Spencer, Materials Thermochemistry, 6th ed., Oxford, Pergamom Press, 1993.",mp-559798
845,NiI2,-0.27016196237323403,,hex,"O. Kubaschewski, C. Alcock, P. Spencer, Materials Thermochemistry, 6th ed., Oxford, Pergamom Press, 1993.",mp-27638
846,NiO,-1.2421577183030215,0.006736775276570413,cubic,"O. Kubaschewski, C. Alcock, P. Spencer, Materials Thermochemistry, 6th ed., Oxford, Pergamom Press, 1993.",mp-19009
847,NiS,-0.45550965139272254,0.032647449417225846,rhomb,"O. Kubaschewski, C. Alcock, P. Spencer, Materials Thermochemistry, 6th ed., Oxford, Pergamom Press, 1993.",mp-1547
850,NiSO4,-1.508346710641355,0.002245591758856804,orth,"O. Kubaschewski, C. Alcock, P. Spencer, Materials Thermochemistry, 6th ed., Oxford, Pergamom Press, 1993.",mp-18749
851,NiSb,-0.433744685114572,,hex,"O. Kubaschewski, C. Alcock, P. Spencer, Materials Thermochemistry, 6th ed., Oxford, Pergamom Press, 1993.",mp-810
852,NiSe2,-0.22317727326484546,0.010018794001053434,cubic,"O. Kubaschewski, C. Alcock, P. Spencer, Materials Thermochemistry, 6th ed., Oxford, Pergamom Press, 1993.",mp-1071078
853,NiSeO3,-1.1761373205926315,,cryst,"O. Kubaschewski, C. Alcock, P. Spencer, Materials Thermochemistry, 6th ed., Oxford, Pergamom Press, 1993.",mp-20460
854,NiTe,-0.1844839998814667,,hex,"O. Kubaschewski, C. Alcock, P. Spencer, Materials Thermochemistry, 6th ed., Oxford, Pergamom Press, 1993.",mp-10264
855,NiWO4,-1.9498645979981235,0.003627494379691761,monocl,"O. Kubaschewski, C. Alcock, P. Spencer, Materials Thermochemistry, 6th ed., Oxford, Pergamom Press, 1993.",mp-21179
856,OsO2,-1.0177712802449455,0.03316566290003895,tetrag,"O. Kubaschewski, C. Alcock, P. Spencer, Materials Thermochemistry, 6th ed., Oxford, Pergamom Press, 1993.",mp-996
857,OsO4,-0.8160825927340836,0.01741197302252045,monocl,"O. Kubaschewski, C. Alcock, P. Spencer, Materials Thermochemistry, 6th ed., Oxford, Pergamom Press, 1993.",mp-540783
858,OsS2,-0.5075037375016378,0.057694434419859435,cubic,"O. Kubaschewski, C. Alcock, P. Spencer, Materials Thermochemistry, 6th ed., Oxford, Pergamom Press, 1993.",mp-20905
859,OsSe2,-0.41491626190569564,0.07220441193862646,cubic,"O. Kubaschewski, C. Alcock, P. Spencer, Materials Thermochemistry, 6th ed., Oxford, Pergamom Press, 1993.",mp-2480
860,P2O5,-2.2283179760963674,0.011104574631709472,hex,"O. Kubaschewski, C. Alcock, P. Spencer, Materials Thermochemistry, 6th ed., Oxford, Pergamom Press, 1993.",mp-2452
862,P2S3,-0.25143718186092034,0.021764966278150565,cryst,"O. Kubaschewski, C. Alcock, P. Spencer, Materials Thermochemistry, 6th ed., Oxford, Pergamom Press, 1993.",mp-29014
865,P4S3,-0.33261458363861834,,cr,https://janaf.nist.gov/tables/P-014.html,mp-1468
866,Pb(NO3)2,-0.5204014952960974,0.00380023220729613,cryst,"O. Kubaschewski, C. Alcock, P. Spencer, Materials Thermochemistry, 6th ed., Oxford, Pergamom Press, 1993.",mp-20820
867,Pb3O4,-1.0642624327030357,0.009327842690635956,tetrag,"O. Kubaschewski, C. Alcock, P. Spencer, Materials Thermochemistry, 6th ed., Oxford, Pergamom Press, 1993.",mp-22633
869,PbBr2,-0.9583494675490423,0.008636891380218477,orth,"O. Kubaschewski, C. Alcock, P. Spencer, Materials Thermochemistry, 6th ed., Oxford, Pergamom Press, 1993.",mp-28077
871,PbCO3,-1.4501686103042035,0.011193411228763148,orth,"O. Kubaschewski, C. Alcock, P. Spencer, Materials Thermochemistry, 6th ed., Oxford, Pergamom Press, 1993.",mp-19893
872,PbCl2,-1.2416395048202082,0.002763805241669913,orth,"O. Kubaschewski, C. Alcock, P. Spencer, Materials Thermochemistry, 6th ed., Oxford, Pergamom Press, 1993.",mp-23291
875,PbF2,-2.335380881645556,,cr,https://janaf.nist.gov/tables/F-092.html,mp-315
876,PbI2,-0.6056188235809198,0.002763805241669913,hex,"O. Kubaschewski, C. Alcock, P. Spencer, Materials Thermochemistry, 6th ed., Oxford, Pergamom Press, 1993.",mp-567542
878,PbO,-1.1300266848919212,,cr,https://janaf.nist.gov/tables/O-006.html,mp-19921
880,PbO2,-0.9483306735479888,0.010018794001053434,tetrag,"O. Kubaschewski, C. Alcock, P. Spencer, Materials Thermochemistry, 6th ed., Oxford, Pergamom Press, 1993.",mp-20725
883,PbS,-0.5094038536052858,0.010882483139075283,cubic,"O. Kubaschewski, C. Alcock, P. Spencer, Materials Thermochemistry, 6th ed., Oxford, Pergamom Press, 1993.",mp-21276
885,PbSO4,-1.5891880139602,0.002245591758856804,orth,"O. Kubaschewski, C. Alcock, P. Spencer, Materials Thermochemistry, 6th ed., Oxford, Pergamom Press, 1993.",mp-3472
886,PbSe,-0.5182134828131086,0.010882483139075283,cubic,"O. Kubaschewski, C. Alcock, P. Spencer, Materials Thermochemistry, 6th ed., Oxford, Pergamom Press, 1993.",mp-2201
887,PbSeO3,-1.114366273441309,,monocl,"O. Kubaschewski, C. Alcock, P. Spencer, Materials Thermochemistry, 6th ed., Oxford, Pergamom Press, 1993.",mp-20716
888,PbWO4,-1.9369092609277958,0.013646288380745197,tetrag,"O. Kubaschewski, C. Alcock, P. Spencer, Materials Thermochemistry, 6th ed., Oxford, Pergamom Press, 1993.",mp-504591
889,Pd4S,-0.143026921256418,0.004352993255630113,tetrag,"O. Kubaschewski, C. Alcock, P. Spencer, Materials Thermochemistry, 6th ed., Oxford, Pergamom Press, 1993.",mp-7819
890,PdCl2,-0.5983638348215361,0.04352993255630113,hex,"O. Kubaschewski, C. Alcock, P. Spencer, Materials Thermochemistry, 6th ed., Oxford, Pergamom Press, 1993.",mp-29487
891,PdI2,-0.21972251671275808,0.03627494379691761,monocl,"O. Kubaschewski, C. Alcock, P. Spencer, Materials Thermochemistry, 6th ed., Oxford, Pergamom Press, 1993.",mp-27747
892,PdO,-0.5985365726491405,0.017101044932832585,tetrag,"O. Kubaschewski, C. Alcock, P. Spencer, Materials Thermochemistry, 6th ed., Oxford, Pergamom Press, 1993.",mp-1336
893,PdS,-0.36637693234886787,0.032647449417225846,tetrag,"O. Kubaschewski, C. Alcock, P. Spencer, Materials Thermochemistry, 6th ed., Oxford, Pergamom Press, 1993.",mp-20250
894,PdS2,-0.27016196237323403,0.04352993255630113,orth,"O. Kubaschewski, C. Alcock, P. Spencer, Materials Thermochemistry, 6th ed., Oxford, Pergamom Press, 1993.",mp-13682
895,Pr2O3,-3.751036473994406,,hex,"O. Kubaschewski, C. Alcock, P. Spencer, Materials Thermochemistry, 6th ed., Oxford, Pergamom Press, 1993.",mp-16705
896,PrCl3,-2.7405720038571255,0.005441241569537641,hex,"O. Kubaschewski, C. Alcock, P. Spencer, Materials Thermochemistry, 6th ed., Oxford, Pergamom Press, 1993.",mp-23211
897,PrF3,-4.436166519621617,0.012955337070327717,trigon,"O. Kubaschewski, C. Alcock, P. Spencer, Materials Thermochemistry, 6th ed., Oxford, Pergamom Press, 1993.",mp-2651
898,PrH2,-0.6909513104174781,0.01140069662188839,cubic,"O. Kubaschewski, C. Alcock, P. Spencer, Materials Thermochemistry, 6th ed., Oxford, Pergamom Press, 1993.",mp-24095
899,PrI3,-1.6955945157644916,0.043270825814894574,orth,"O. Kubaschewski, C. Alcock, P. Spencer, Materials Thermochemistry, 6th ed., Oxford, Pergamom Press, 1993.",
900,PrS,-2.341806728832438,0.1300715841860903,cubic,"O. Kubaschewski, C. Alcock, P. Spencer, Materials Thermochemistry, 6th ed., Oxford, Pergamom Press, 1993.",mp-2495
901,Pt5Se4,-0.2794898050638699,0.043414774004564886,monocl,"O. Kubaschewski, C. Alcock, P. Spencer, Materials Thermochemistry, 6th ed., Oxford, Pergamom Press, 1993.",mp-29767
902,PtCl4,-0.4908518109205765,0.03461666065191566,cubic,"O. Kubaschewski, C. Alcock, P. Spencer, Materials Thermochemistry, 6th ed., Oxford, Pergamom Press, 1993.",
903,PtS,-0.4306354042176933,0.012955337070327717,tetrag,"O. Kubaschewski, C. Alcock, P. Spencer, Materials Thermochemistry, 6th ed., Oxford, Pergamom Press, 1993.",mp-288
904,PtS2,-0.3831325016264917,0.008636891380218477,hex,"O. Kubaschewski, C. Alcock, P. Spencer, Materials Thermochemistry, 6th ed., Oxford, Pergamom Press, 1993.",mp-762
905,PuN,-1.550494740576821,,cubic,"O. Kubaschewski, C. Alcock, P. Spencer, Materials Thermochemistry, 6th ed., Oxford, Pergamom Press, 1993.",mp-1719
906,Rb2CO3,-1.957119586757507,0.023837820209403,monocl,"O. Kubaschewski, C. Alcock, P. Spencer, Materials Thermochemistry, 6th ed., Oxford, Pergamom Press, 1993.",mp-4138
908,Rb2S,-1.247512590958757,0.07220441193862646,cubic,"O. Kubaschewski, C. Alcock, P. Spencer, Materials Thermochemistry, 6th ed., Oxford, Pergamom Press, 1993.",mp-8041
909,Rb2SO4,-2.1279326214257135,0.001924792936162975,orth,"O. Kubaschewski, C. Alcock, P. Spencer, Materials Thermochemistry, 6th ed., Oxford, Pergamom Press, 1993.",mp-3372
910,RbBO2,-2.526031621972498,0.05415330895396985,cryst,"O. Kubaschewski, C. Alcock, P. Spencer, Materials Thermochemistry, 6th ed., Oxford, Pergamom Press, 1993.",mp-31358
911,RbBr,-2.044870403180527,0.00414570786250487,cubic,"O. Kubaschewski, C. Alcock, P. Spencer, Materials Thermochemistry, 6th ed., Oxford, Pergamom Press, 1993.",mp-22867
912,RbCl,-2.254746863719836,0.00414570786250487,cubic,"O. Kubaschewski, C. Alcock, P. Spencer, Materials Thermochemistry, 6th ed., Oxford, Pergamom Press, 1993.",mp-23295
914,RbH,-0.27102565151125585,0.002072853931252435,cubic,"O. Kubaschewski, C. Alcock, P. Spencer, Materials Thermochemistry, 6th ed., Oxford, Pergamom Press, 1993.",mp-24721
915,RbI,-1.7194323359738948,0.025910674140655433,cubic,"O. Kubaschewski, C. Alcock, P. Spencer, Materials Thermochemistry, 6th ed., Oxford, Pergamom Press, 1993.",mp-22903
916,Re2O7,-1.437754518427036,0.01209164793230587,orth,"O. Kubaschewski, C. Alcock, P. Spencer, Materials Thermochemistry, 6th ed., Oxford, Pergamom Press, 1993.",mp-1016092
917,Re5Si3,-0.203787452116255,0.08135951680165807,tetrag,"O. Kubaschewski, C. Alcock, P. Spencer, Materials Thermochemistry, 6th ed., Oxford, Pergamom Press, 1993.",mp-1105959
918,ReCl3,-0.6830053703476773,0.027206207847688207,hex,"O. Kubaschewski, C. Alcock, P. Spencer, Materials Thermochemistry, 6th ed., Oxford, Pergamom Press, 1993.",mp-23174
919,ReO2,-1.4945276844330053,0.017273782760436954,monocl,"O. Kubaschewski, C. Alcock, P. Spencer, Materials Thermochemistry, 6th ed., Oxford, Pergamom Press, 1993.",mp-7228
920,ReO3,-1.5828830832526404,0.032647449417225846,cubic,"O. Kubaschewski, C. Alcock, P. Spencer, Materials Thermochemistry, 6th ed., Oxford, Pergamom Press, 1993.",mp-190
921,ReS2,-0.6173649958580167,0.04352993255630113,hex,"O. Kubaschewski, C. Alcock, P. Spencer, Materials Thermochemistry, 6th ed., Oxford, Pergamom Press, 1993.",mp-572758
922,ReSi,-0.2730985054425083,0.1083066179079397,cubic,"O. Kubaschewski, C. Alcock, P. Spencer, Materials Thermochemistry, 6th ed., Oxford, Pergamom Press, 1993.",mp-7948
923,ReSi2,-0.3123099923087002,0.10847935573554408,tetrag,"O. Kubaschewski, C. Alcock, P. Spencer, Materials Thermochemistry, 6th ed., Oxford, Pergamom Press, 1993.",mp-12605
924,Rh2O3,-0.7371068579533658,,rhomb,"O. Kubaschewski, C. Alcock, P. Spencer, Materials Thermochemistry, 6th ed., Oxford, Pergamom Press, 1993.",mp-1716
925,Rh2S3,-0.5447460131331399,,cryst,"O. Kubaschewski, C. Alcock, P. Spencer, Materials Thermochemistry, 6th ed., Oxford, Pergamom Press, 1993.",mp-17173
926,Rh3S4,-0.529614179434997,,cryst,"O. Kubaschewski, C. Alcock, P. Spencer, Materials Thermochemistry, 6th ed., Oxford, Pergamom Press, 1993.",mp-29841
927,RhCl3,-0.7262761961625719,0.032647449417225846,monocl,"O. Kubaschewski, C. Alcock, P. Spencer, Materials Thermochemistry, 6th ed., Oxford, Pergamom Press, 1993.",mp-27770
928,RuCl3,-0.655799162499989,0.037829584245356936,hex,"O. Kubaschewski, C. Alcock, P. Spencer, Materials Thermochemistry, 6th ed., Oxford, Pergamom Press, 1993.",mp-22850
929,RuF5,-1.5423760626794156,0.0029365430692742823,cryst,"O. Kubaschewski, C. Alcock, P. Spencer, Materials Thermochemistry, 6th ed., Oxford, Pergamom Press, 1993.",mp-540829
930,RuO2,-1.0537007483866543,0.021764966278150565,tetrag,"O. Kubaschewski, C. Alcock, P. Spencer, Materials Thermochemistry, 6th ed., Oxford, Pergamom Press, 1993.",mp-825