,formula,expt_form_e,uncertainty,phaseinfo,reference,likely_mpid
195,CaNb2O6,-3.0807215760480626,0.019807270898634377,none,"O. Kubaschewski, C. Alcock, P. Spencer, Materials Thermochemistry, 6th ed., Oxford, Pergamom Press, 1993.",mp-17101
196,CaO,-3.290137402380427,0.00414570786250487,cubic,"O. Kubaschewski, C. Alcock, P. Spencer, Materials Thermochemistry, 6th ed., Oxford, Pergamom Press, 1993.",mp-2605
199,CaS,-2.45218620067163,0.01969211234689813,cubic,"O. Kubaschewski, C. Alcock, P. Spencer, Materials Thermochemistry, 6th ed., Oxford, Pergamom Press, 1993.",mp-1672
202,CaSO4,-2.477233185674264,0.007254988759383522,orth,"O. Kubaschewski, C. Alcock, P. Spencer, Materials Thermochemistry, 6th ed., Oxford, Pergamom Press, 1993.",mp-4406
203,CaSe,-1.9080620437178661,0.1736015167423914,cubic,"O. Kubaschewski, C. Alcock, P. Spencer, Materials Thermochemistry, 6th ed., Oxford, Pergamom Press, 1993.",mp-1415
204,CaSi,-0.7804295051165416,0.047675640418805995,orth,"O. Kubaschewski, C. Alcock, P. Spencer, Materials Thermochemistry, 6th ed., Oxford, Pergamom Press, 1993.",mp-1563
206,CaSiO3,-3.3893234629908555,0.004352993255630113,wollas,"O. Kubaschewski, C. Alcock, P. Spencer, Materials Thermochemistry, 6th ed., Oxford, Pergamom Press, 1993.",mp-5733
207,CaTiO3,-3.4421812382377928,0.010364269656262174,cubic,"O. Kubaschewski, C. Alcock, P. Spencer, Materials Thermochemistry, 6th ed., Oxford, Pergamom Press, 1993.",mp-4019
208,CaUO4,-3.451820009018117,0.006564037448966043,none,"O. Kubaschewski, C. Alcock, P. Spencer, Materials Thermochemistry, 6th ed., Oxford, Pergamom Press, 1993.",mp-3960
209,CaV2O6,-2.6818123528337057,0.006218561793757304,none,"O. Kubaschewski, C. Alcock, P. Spencer, Materials Thermochemistry, 6th ed., Oxford, Pergamom Press, 1993.",mp-27624
210,CaWO4,-2.8056077959501704,0.020901277140128714,scheel,"O. Kubaschewski, C. Alcock, P. Spencer, Materials Thermochemistry, 6th ed., Oxford, Pergamom Press, 1993.",mp-19426
211,CaZrO3,-3.661696469557426,0.01989939774002337,cubic,"O. Kubaschewski, C. Alcock, P. Spencer, Materials Thermochemistry, 6th ed., Oxford, Pergamom Press, 1993.",mp-4571
212,Cd(NO3)2,-0.5256987886759646,0.005297293379867333,cubic,"O. Kubaschewski, C. Alcock, P. Spencer, Materials Thermochemistry, 6th ed., Oxford, Pergamom Press, 1993.",mp-27198
213,Cd3As2,-0.07897573478071776,0.01741197302252045,tetrag,"O. Kubaschewski, C. Alcock, P. Spencer, Materials Thermochemistry, 6th ed., Oxford, Pergamom Press, 1993.",mp-570634
214,CdBr2,-1.0892847408731545,0.005873086138548565,hex,"O. Kubaschewski, C. Alcock, P. Spencer, Materials Thermochemistry, 6th ed., Oxford, Pergamom Press, 1993.",mp-27934
215,CdCO3,-1.5585788709087056,0.01741197302252045,hex,"O. Kubaschewski, C. Alcock, P. Spencer, Materials Thermochemistry, 6th ed., Oxford, Pergamom Press, 1993.",mp-4385
216,CdCl2,-1.3501188605557524,0.004491183517713608,hex,"O. Kubaschewski, C. Alcock, P. Spencer, Materials Thermochemistry, 6th ed., Oxford, Pergamom Press, 1993.",mp-22881
217,CdF2,-2.4197114890820086,0.007254988759383522,cubic,"O. Kubaschewski, C. Alcock, P. Spencer, Materials Thermochemistry, 6th ed., Oxford, Pergamom Press, 1993.",mp-241
218,CdI2,-0.7054612879362452,0.008636891380218477,hex,"O. Kubaschewski, C. Alcock, P. Spencer, Materials Thermochemistry, 6th ed., Oxford, Pergamom Press, 1993.",mp-571579
220,CdO,-1.3390636395890727,0.00414570786250487,cubic,"O. Kubaschewski, C. Alcock, P. Spencer, Materials Thermochemistry, 6th ed., Oxford, Pergamom Press, 1993.",mp-1132
221,CdS,-0.7742109433227844,0.01502819100158015,hex,"O. Kubaschewski, C. Alcock, P. Spencer, Materials Thermochemistry, 6th ed., Oxford, Pergamom Press, 1993.",mp-672
222,CdSO4,-1.613889523307625,0.002245591758856804,rhomb,"O. Kubaschewski, C. Alcock, P. Spencer, Materials Thermochemistry, 6th ed., Oxford, Pergamom Press, 1993.",mp-8459
223,CdSb,-0.06892239321414347,0.006736775276570413,orth,"O. Kubaschewski, C. Alcock, P. Spencer, Materials Thermochemistry, 6th ed., Oxford, Pergamom Press, 1993.",mp-1321
224,CdSe,-0.7503731231133814,0.010882483139075283,hex,"O. Kubaschewski, C. Alcock, P. Spencer, Materials Thermochemistry, 6th ed., Oxford, Pergamom Press, 1993.",mp-2691
225,CdSeO3,-1.1952075767601538,,cryst,"O. Kubaschewski, C. Alcock, P. Spencer, Materials Thermochemistry, 6th ed., Oxford, Pergamom Press, 1993.",mp-559203
226,CdSiO3,-2.4652451804385205,0.006840417973133034,monocl,"O. Kubaschewski, C. Alcock, P. Spencer, Materials Thermochemistry, 6th ed., Oxford, Pergamom Press, 1993.",mp-560560
227,CdTe,-0.5223591906756135,0.00414570786250487,cubic,"O. Kubaschewski, C. Alcock, P. Spencer, Materials Thermochemistry, 6th ed., Oxford, Pergamom Press, 1993.",mp-406
228,Ce2C3,-0.36606600425917996,0.013888121339391313,cubic,"O. Kubaschewski, C. Alcock, P. Spencer, Materials Thermochemistry, 6th ed., Oxford, Pergamom Press, 1993.",mp-20181
229,Ce2O3,-3.730515220075007,0.002694710110628165,cubic,"O. Kubaschewski, C. Alcock, P. Spencer, Materials Thermochemistry, 6th ed., Oxford, Pergamom Press, 1993.",mp-542313
230,Ce2S3,-2.463172326507268,0.026117959533780676,cubic,"O. Kubaschewski, C. Alcock, P. Spencer, Materials Thermochemistry, 6th ed., Oxford, Pergamom Press, 1993.",mp-20973
231,Ce3S4,-2.447004065843499,0.03094474797369706,cubic,"O. Kubaschewski, C. Alcock, P. Spencer, Materials Thermochemistry, 6th ed., Oxford, Pergamom Press, 1993.",mp-1382
232,CeAlO3,-3.732795359399385,0.00601127640063206,orth,"O. Kubaschewski, C. Alcock, P. Spencer, Materials Thermochemistry, 6th ed., Oxford, Pergamom Press, 1993.",mp-19843
233,CeBr3,-2.298276796276137,,hex,"O. Kubaschewski, C. Alcock, P. Spencer, Materials Thermochemistry, 6th ed., Oxford, Pergamom Press, 1993.",mp-569850
235,CeCl3,-2.741608430822751,0.004404814603911423,hex,"O. Kubaschewski, C. Alcock, P. Spencer, Materials Thermochemistry, 6th ed., Oxford, Pergamom Press, 1993.",mp-582011
236,CeCrO3,-3.1776850766099822,0.024252390995653485,none,"O. Kubaschewski, C. Alcock, P. Spencer, Materials Thermochemistry, 6th ed., Oxford, Pergamom Press, 1993.",mp-20530
237,CeF3,-4.48928340160996,0.021764966278150565,hex,"O. Kubaschewski, C. Alcock, P. Spencer, Materials Thermochemistry, 6th ed., Oxford, Pergamom Press, 1993.",mp-510560
238,CeH2,-0.6678044415184927,,cubic,"O. Kubaschewski, C. Alcock, P. Spencer, Materials Thermochemistry, 6th ed., Oxford, Pergamom Press, 1993.",mp-505569
239,CeI3,-1.68367560565979,0.023837820209402998,orth,"O. Kubaschewski, C. Alcock, P. Spencer, Materials Thermochemistry, 6th ed., Oxford, Pergamom Press, 1993.",
240,CeN,-1.6914488079019867,0.1300715841860903,cubic,"O. Kubaschewski, C. Alcock, P. Spencer, Materials Thermochemistry, 6th ed., Oxford, Pergamom Press, 1993.",mp-2493
241,CeO2,-3.767066544396092,0.002763805241669913,cubic,"O. Kubaschewski, C. Alcock, P. Spencer, Materials Thermochemistry, 6th ed., Oxford, Pergamom Press, 1993.",mp-20194
242,CeS,-2.365644549041841,0.04352993255630113,cubic,"O. Kubaschewski, C. Alcock, P. Spencer, Materials Thermochemistry, 6th ed., Oxford, Pergamom Press, 1993.",mp-1096
243,Co(NO3)2,-0.48516297846480605,0.004376024965977362,cryst,"O. Kubaschewski, C. Alcock, P. Spencer, Materials Thermochemistry, 6th ed., Oxford, Pergamom Press, 1993.",
244,Co2P,-0.6474213778611771,0.05942181269590313,rhomb,"O. Kubaschewski, C. Alcock, P. Spencer, Materials Thermochemistry, 6th ed., Oxford, Pergamom Press, 1993.",mp-22204
245,Co2SiO4,-2.070929138316272,0.006810805774115142,orth,"O. Kubaschewski, C. Alcock, P. Spencer, Materials Thermochemistry, 6th ed., Oxford, Pergamom Press, 1993.",mp-21856
246,Co3O4,-1.3473550553140825,0.006810805774115142,cubic,"O. Kubaschewski, C. Alcock, P. Spencer, Materials Thermochemistry, 6th ed., Oxford, Pergamom Press, 1993.",mp-18748
249,Co3S4,-0.5315389723711601,0.03716330976745437,cubic,"O. Kubaschewski, C. Alcock, P. Spencer, Materials Thermochemistry, 6th ed., Oxford, Pergamom Press, 1993.",mp-943
250,CoBr2,-0.7451909882852502,0.007254988759383522,hex,"O. Kubaschewski, C. Alcock, P. Spencer, Materials Thermochemistry, 6th ed., Oxford, Pergamom Press, 1993.",mp-30033
251,CoCO3,-1.4561798867048354,0.026117959533780676,hex,"O. Kubaschewski, C. Alcock, P. Spencer, Materials Thermochemistry, 6th ed., Oxford, Pergamom Press, 1993.",mp-21434
252,CoCl2,-1.0796114225273097,0.005873086138548565,hex,"O. Kubaschewski, C. Alcock, P. Spencer, Materials Thermochemistry, 6th ed., Oxford, Pergamom Press, 1993.",mp-23240
254,CoF2,-2.319869024726683,0.031783760279203994,tetrag,"O. Kubaschewski, C. Alcock, P. Spencer, Materials Thermochemistry, 6th ed., Oxford, Pergamom Press, 1993.",mp-555908
259,CoF3,-2.0478708592460144,,cr,https://janaf.nist.gov/tables/Co-012.html,mp-559473
260,CoI2,-0.29641811216909814,0.03627494379691761,hex,"O. Kubaschewski, C. Alcock, P. Spencer, Materials Thermochemistry, 6th ed., Oxford, Pergamom Press, 1993.",mp-569610
261,CoO,-1.2317934486467592,0.003109280896878652,cubic,"O. Kubaschewski, C. Alcock, P. Spencer, Materials Thermochemistry, 6th ed., Oxford, Pergamom Press, 1993.",mp-19079
264,CoP,-0.6503579209304514,0.09327842690635957,rhomb,"O. Kubaschewski, C. Alcock, P. Spencer, Materials Thermochemistry, 6th ed., Oxford, Pergamom Press, 1993.",mp-22270
265,CoP3,-0.5301323929178102,0.08239594376728428,cryst,"O. Kubaschewski, C. Alcock, P. Spencer, Materials Thermochemistry, 6th ed., Oxford, Pergamom Press, 1993.",mp-1944
266,CoS2,-0.5289232281245796,0.029019955037534087,cubic,"O. Kubaschewski, C. Alcock, P. Spencer, Materials Thermochemistry, 6th ed., Oxford, Pergamom Press, 1993.",mp-2070
267,CoSO4,-1.5344301226096146,0.0029365430692742823,rhomb,"O. Kubaschewski, C. Alcock, P. Spencer, Materials Thermochemistry, 6th ed., Oxford, Pergamom Press, 1993.",mp-19379
269,CoSb,-0.2166132358158794,0.04093886514223559,hex,"O. Kubaschewski, C. Alcock, P. Spencer, Materials Thermochemistry, 6th ed., Oxford, Pergamom Press, 1993.",mp-2644
270,CoSeO3,-1.1968658599051558,0.021764966278150565,cryst,"O. Kubaschewski, C. Alcock, P. Spencer, Materials Thermochemistry, 6th ed., Oxford, Pergamom Press, 1993.",mp-562826
273,CoWO4,-1.9730114668971093,0.006564037448966043,monocl,"O. Kubaschewski, C. Alcock, P. Spencer, Materials Thermochemistry, 6th ed., Oxford, Pergamom Press, 1993.",mp-19092
274,Cr(CO)6,-0.8589587790505283,0.0033484563504847025,orth,"O. Kubaschewski, C. Alcock, P. Spencer, Materials Thermochemistry, 6th ed., Oxford, Pergamom Press, 1993.",
275,Cr2(SO4)3,-1.7871049202000773,0.009693640443209915,none,"O. Kubaschewski, C. Alcock, P. Spencer, Materials Thermochemistry, 6th ed., Oxford, Pergamom Press, 1993.",mp-19361
276,Cr23C6,-0.11736641914194819,0.013473550553140827,cubic,"O. Kubaschewski, C. Alcock, P. Spencer, Materials Thermochemistry, 6th ed., Oxford, Pergamom Press, 1993.",mp-723
279,Cr2N,-0.43357194728696763,0.04352993255630113,hex,"O. Kubaschewski, C. Alcock, P. Spencer, Materials Thermochemistry, 6th ed., Oxford, Pergamom Press, 1993.",mp-8780
282,Cr2O3,-2.352067355792138,0.015546404484393261,rhomb,"O. Kubaschewski, C. Alcock, P. Spencer, Materials Thermochemistry, 6th ed., Oxford, Pergamom Press, 1993.",mp-19399
284,Cr3B4,-0.41634751819156046,,orth,"O. Kubaschewski, C. Alcock, P. Spencer, Materials Thermochemistry, 6th ed., Oxford, Pergamom Press, 1993.",mp-889
285,Cr3C2,-0.17702172572895794,0.026117959533780676,orth,"O. Kubaschewski, C. Alcock, P. Spencer, Materials Thermochemistry, 6th ed., Oxford, Pergamom Press, 1993.",mp-20937
288,Cr5B3,-0.3224583396804569,,tetrag,"O. Kubaschewski, C. Alcock, P. Spencer, Materials Thermochemistry, 6th ed., Oxford, Pergamom Press, 1993.",mp-15617
291,Cr7C3,-0.16651857485930183,,cr,https://janaf.nist.gov/tables/C-140.html,mp-1196316
292,CrB,-0.4088704379395428,,orth,"O. Kubaschewski, C. Alcock, P. Spencer, Materials Thermochemistry, 6th ed., Oxford, Pergamom Press, 1993.",mp-1080664
294,CrBr2,-1.0436819543856009,0.06494942317924296,monocl,"O. Kubaschewski, C. Alcock, P. Spencer, Materials Thermochemistry, 6th ed., Oxford, Pergamom Press, 1993.",mp-567624
295,CrCl2,-1.3660107406953543,0.03627494379691761,orth,"O. Kubaschewski, C. Alcock, P. Spencer, Materials Thermochemistry, 6th ed., Oxford, Pergamom Press, 1993.",mp-22857
296,CrCl3,-1.4776857462415793,0.028242634813314425,monocl,"O. Kubaschewski, C. Alcock, P. Spencer, Materials Thermochemistry, 6th ed., Oxford, Pergamom Press, 1993.",mp-567504
297,CrF2,-2.6784727548333542,0.04042065165942248,monocl,"O. Kubaschewski, C. Alcock, P. Spencer, Materials Thermochemistry, 6th ed., Oxford, Pergamom Press, 1993.",mp-554340
298,CrF3,-3.003047132901965,0.021764966278150565,hex,"O. Kubaschewski, C. Alcock, P. Spencer, Materials Thermochemistry, 6th ed., Oxford, Pergamom Press, 1993.",mp-560338
299,CrI2,-0.5465424865402252,0.020383063657315608,monocl,"O. Kubaschewski, C. Alcock, P. Spencer, Materials Thermochemistry, 6th ed., Oxford, Pergamom Press, 1993.",mp-27215
301,CrN,-0.6073462018569634,0.04352993255630113,cubic,"O. Kubaschewski, C. Alcock, P. Spencer, Materials Thermochemistry, 6th ed., Oxford, Pergamom Press, 1993.",mp-2132
303,CrO3,-1.520956572056474,0.028242634813314425,orth,"O. Kubaschewski, C. Alcock, P. Spencer, Materials Thermochemistry, 6th ed., Oxford, Pergamom Press, 1993.",mp-510421
304,CrS,-0.806340179257197,0.04974849435005843,monocl,"O. Kubaschewski, C. Alcock, P. Spencer, Materials Thermochemistry, 6th ed., Oxford, Pergamom Press, 1993.",mp-523
307,Cs2CO3,-1.9629926728960558,0.003627494379691761,cryst,"O. Kubaschewski, C. Alcock, P. Spencer, Materials Thermochemistry, 6th ed., Oxford, Pergamom Press, 1993.",mp-616458
308,Cs2CrO4,-2.1162358028136463,0.004886012837952167,cryst,"O. Kubaschewski, C. Alcock, P. Spencer, Materials Thermochemistry, 6th ed., Oxford, Pergamom Press, 1993.",mp-647813
309,Cs2MoO4,-2.2425318316249556,,rhomb,"O. Kubaschewski, C. Alcock, P. Spencer, Materials Thermochemistry, 6th ed., Oxford, Pergamom Press, 1993.",mp-1194312
312,Cs2SO4,-2.1359871395585803,,cr,https://janaf.nist.gov/tables/Cs-023.html,mp-505782
313,Cs2SiO3,-2.6914280919036817,0.026083411968259803,cryst,"O. Kubaschewski, C. Alcock, P. Spencer, Materials Thermochemistry, 6th ed., Oxford, Pergamom Press, 1993.",mp-505734
314,Cs2UO4,-2.8520989484082606,0.006810805774115142,none,"O. Kubaschewski, C. Alcock, P. Spencer, Materials Thermochemistry, 6th ed., Oxford, Pergamom Press, 1993.",mp-2991
315,CsBO2,-2.530954650059223,0.05415330895396985,cubic,"O. Kubaschewski, C. Alcock, P. Spencer, Materials Thermochemistry, 6th ed., Oxford, Pergamom Press, 1993.",mp-561725
316,CsBr,-2.1008374593243424,0.00414570786250487,cubic,"O. Kubaschewski, C. Alcock, P. Spencer, Materials Thermochemistry, 6th ed., Oxford, Pergamom Press, 1993.",mp-571222
317,CsCl,-2.294131088413632,0.002072853931252435,cubic,"O. Kubaschewski, C. Alcock, P. Spencer, Materials Thermochemistry, 6th ed., Oxford, Pergamom Press, 1993.",mp-573697
319,CsClO4,-0.7552097822863036,0.002245591758856804,rhomb,"O. Kubaschewski, C. Alcock, P. Spencer, Materials Thermochemistry, 6th ed., Oxford, Pergamom Press, 1993.",mp-30206
322,CsF,-2.8743902715239544,,cr,https://janaf.nist.gov/tables/Cs-008.html,mp-1784
323,CsH,-0.2798352807190787,0.002072853931252435,cubic,"O. Kubaschewski, C. Alcock, P. Spencer, Materials Thermochemistry, 6th ed., Oxford, Pergamom Press, 1993.",mp-1057286
325,CsHO,-1.4396868789251702,,cr,https://janaf.nist.gov/tables/Cs-012.html,
326,CsI,-1.7950915044646083,0.04352993255630113,cubic,"O. Kubaschewski, C. Alcock, P. Spencer, Materials Thermochemistry, 6th ed., Oxford, Pergamom Press, 1993.",mp-614603
327,CsNO2,-0.9571403027558116,,cubic,"O. Kubaschewski, C. Alcock, P. Spencer, Materials Thermochemistry, 6th ed., Oxford, Pergamom Press, 1993.",mp-3288
328,CsNO3,-1.0484495184274816,0.004352993255630113,hex,"O. Kubaschewski, C. Alcock, P. Spencer, Materials Thermochemistry, 6th ed., Oxford, Pergamom Press, 1993.",mp-561851
329,CsO2,-0.9887513252074114,0.007254988759383522,tetrag,"O. Kubaschewski, C. Alcock, P. Spencer, Materials Thermochemistry, 6th ed., Oxford, Pergamom Press, 1993.",mp-1441
332,Cu2O,-0.5897511267371823,,cr,https://janaf.nist.gov/tables/Cu-019.html,mp-361
333,Cu2S,-0.27465314589094764,0.005873086138548565,orth,"O. Kubaschewski, C. Alcock, P. Spencer, Materials Thermochemistry, 6th ed., Oxford, Pergamom Press, 1993.",mp-581212
334,Cu2Sb,-0.04042065165942248,0.005873086138548565,cryst,"O. Kubaschewski, C. Alcock, P. Spencer, Materials Thermochemistry, 6th ed., Oxford, Pergamom Press, 1993.",mp-1825
335,Cu2Se,-0.22559560285130664,0.021764966278150565,tetrag,"O. Kubaschewski, C. Alcock, P. Spencer, Materials Thermochemistry, 6th ed., Oxford, Pergamom Press, 1993.",mp-16366
336,Cu2Te,-0.14440882387725293,0.04352993255630113,hex,"O. Kubaschewski, C. Alcock, P. Spencer, Materials Thermochemistry, 6th ed., Oxford, Pergamom Press, 1993.",mp-1861
337,Cu3P,-0.39125117952389704,0.032647449417225846,hex,"O. Kubaschewski, C. Alcock, P. Spencer, Materials Thermochemistry, 6th ed., Oxford, Pergamom Press, 1993.",mp-7463
338,CuBr,-0.5420513030225117,0.006736775276570413,cubic,"O. Kubaschewski, C. Alcock, P. Spencer, Materials Thermochemistry, 6th ed., Oxford, Pergamom Press, 1993.",mp-22913
339,CuCN,0.3282018724483022,0.007254988759383522,cryst,"O. Kubaschewski, C. Alcock, P. Spencer, Materials Thermochemistry, 6th ed., Oxford, Pergamom Press, 1993.",
341,CuCO3,-1.2358355138127017,0.0190702561675224,none,"O. Kubaschewski, C. Alcock, P. Spencer, Materials Thermochemistry, 6th ed., Oxford, Pergamom Press, 1993.",mp-27249
343,CuCl,-0.7155077199897154,,cr,https://janaf.nist.gov/tables/Cl-009.html,mp-22914
345,CuCl2,-0.7111720005168457,,cr,https://janaf.nist.gov/tables/Cl-079.html,mp-30999
347,CuF2,-1.861768305919895,0.029019955037534087,monocl,"O. Kubaschewski, C. Alcock, P. Spencer, Materials Thermochemistry, 6th ed., Oxford, Pergamom Press, 1993.",mp-1229
349,CuI,-0.3523851683129139,0.010882483139075283,cubic,"O. Kubaschewski, C. Alcock, P. Spencer, Materials Thermochemistry, 6th ed., Oxford, Pergamom Press, 1993.",mp-570136
352,CuO,-0.8087395076826217,,cr,https://janaf.nist.gov/tables/Cu-015.html,mp-704645
353,CuS,-0.27102565151125585,0.021764966278150565,hex,"O. Kubaschewski, C. Alcock, P. Spencer, Materials Thermochemistry, 6th ed., Oxford, Pergamom Press, 1993.",mp-555599
355,CuSO4,-1.3300501797446767,,cr,https://janaf.nist.gov/tables/Cu-017.html,mp-20525
356,CuSe,-0.2166132358158794,0.021764966278150565,hex,"O. Kubaschewski, C. Alcock, P. Spencer, Materials Thermochemistry, 6th ed., Oxford, Pergamom Press, 1993.",mp-571486
357,Dy2O3,-3.8611050177439106,0.007876844938759252,cubic,"O. Kubaschewski, C. Alcock, P. Spencer, Materials Thermochemistry, 6th ed., Oxford, Pergamom Press, 1993.",mp-2345
358,DyCl3,-2.580184930926468,0.023837820209402998,monocl,"O. Kubaschewski, C. Alcock, P. Spencer, Materials Thermochemistry, 6th ed., Oxford, Pergamom Press, 1993.",mp-28448
359,DyF3,-4.455599525227108,0.019433005605491577,orth,"O. Kubaschewski, C. Alcock, P. Spencer, Materials Thermochemistry, 6th ed., Oxford, Pergamom Press, 1993.",
360,Er2O3,-3.934069476123996,0.008705986511260226,cubic,"O. Kubaschewski, C. Alcock, P. Spencer, Materials Thermochemistry, 6th ed., Oxford, Pergamom Press, 1993.",mp-679
361,ErCl3,-2.5713753017186454,0.007514095500790075,monocl,"O. Kubaschewski, C. Alcock, P. Spencer, Materials Thermochemistry, 6th ed., Oxford, Pergamom Press, 1993.",
362,ErF3,-4.463372727469305,0.016323724708612923,orth,"O. Kubaschewski, C. Alcock, P. Spencer, Materials Thermochemistry, 6th ed., Oxford, Pergamom Press, 1993.",mp-9371
363,Eu2O3,-3.4465342314934233,0.007876844938759252,cubic,"O. Kubaschewski, C. Alcock, P. Spencer, Materials Thermochemistry, 6th ed., Oxford, Pergamom Press, 1993.",mp-1182469
364,EuCl3,-2.4337896220317647,0.011918910104701499,hex,"O. Kubaschewski, C. Alcock, P. Spencer, Materials Thermochemistry, 6th ed., Oxford, Pergamom Press, 1993.",mp-569895