,formula,expt_form_e,uncertainty,phaseinfo,reference,likely_mpid
365,EuF3,-4.195456356854928,,orth,"O. Kubaschewski, C. Alcock, P. Spencer, Materials Thermochemistry, 6th ed., Oxford, Pergamom Press, 1993.",mp-19908
366,EuN,-1.1276325386013244,0.1300715841860903,cubic,"O. Kubaschewski, C. Alcock, P. Spencer, Materials Thermochemistry, 6th ed., Oxford, Pergamom Press, 1993.",mp-20340
367,EuO,-3.056941335114528,0.02798352807190787,cubic,"O. Kubaschewski, C. Alcock, P. Spencer, Materials Thermochemistry, 6th ed., Oxford, Pergamom Press, 1993.",mp-21394
368,EuS,-2.341806728832438,0.08654165162978915,cubic,"O. Kubaschewski, C. Alcock, P. Spencer, Materials Thermochemistry, 6th ed., Oxford, Pergamom Press, 1993.",mp-20587
370,Fe2(SO4)3,-1.5747532282016843,,cr,https://janaf.nist.gov/tables/Fe-031.html,mp-540767
374,Fe2O3,-1.7111471388106785,,cr,https://janaf.nist.gov/tables/Fe-030.html,mp-19770
375,Fe2P,-0.5534519996444001,,hex,"O. Kubaschewski, C. Alcock, P. Spencer, Materials Thermochemistry, 6th ed., Oxford, Pergamom Press, 1993.",mp-778
376,Fe2SiO4,-2.1781252987610404,0.011696818612067311,fayal,"O. Kubaschewski, C. Alcock, P. Spencer, Materials Thermochemistry, 6th ed., Oxford, Pergamom Press, 1993.",mp-20313
377,Fe3C,0.06503579209304515,0.010882483139075283,cement,"O. Kubaschewski, C. Alcock, P. Spencer, Materials Thermochemistry, 6th ed., Oxford, Pergamom Press, 1993.",mp-13154
380,Fe3O4,-1.6596008878582442,,cr,https://janaf.nist.gov/tables/Fe-032.html,mp-19306
381,Fe3P,-0.4249350559067491,,tetrag,"O. Kubaschewski, C. Alcock, P. Spencer, Materials Thermochemistry, 6th ed., Oxford, Pergamom Press, 1993.",mp-18708
382,Fe4N,-0.023008678636902025,0.008705986511260226,cubic,"O. Kubaschewski, C. Alcock, P. Spencer, Materials Thermochemistry, 6th ed., Oxford, Pergamom Press, 1993.",mp-535
384,FeBr2,-0.8598889058145517,0.005873086138548565,hex,"O. Kubaschewski, C. Alcock, P. Spencer, Materials Thermochemistry, 6th ed., Oxford, Pergamom Press, 1993.",mp-22880
386,FeCO3,-1.5351556214855533,0.006840417973133034,sider,"O. Kubaschewski, C. Alcock, P. Spencer, Materials Thermochemistry, 6th ed., Oxford, Pergamom Press, 1993.",mp-18969
387,FeCl2,-1.1808357895034705,0.002763805241669913,hex,"O. Kubaschewski, C. Alcock, P. Spencer, Materials Thermochemistry, 6th ed., Oxford, Pergamom Press, 1993.",mp-23229
389,FeCl3,-1.034872325177778,0.0025910674140655434,hex,"O. Kubaschewski, C. Alcock, P. Spencer, Materials Thermochemistry, 6th ed., Oxford, Pergamom Press, 1993.",mp-23204
392,FeF2,-2.4385088194819162,,cr,https://janaf.nist.gov/tables/F-055.html,mp-556911
396,FeS,-0.5268728301109158,,cr,https://janaf.nist.gov/tables/Fe-023.html,mp-505531
397,FeS2,-0.5924907486829876,0.007254988759383522,pyrite,"O. Kubaschewski, C. Alcock, P. Spencer, Materials Thermochemistry, 6th ed., Oxford, Pergamom Press, 1993.",mp-1522
401,FeSO4,-1.6044718569466345,,cr,https://janaf.nist.gov/tables/Fe-022.html,mp-19254
403,FeWO4,-2.043143024904483,0.009327842690635956,monocl,"O. Kubaschewski, C. Alcock, P. Spencer, Materials Thermochemistry, 6th ed., Oxford, Pergamom Press, 1993.",mp-19421
405,Ga2S3,-1.0702144847056319,0.026117959533780676,cubic,"O. Kubaschewski, C. Alcock, P. Spencer, Materials Thermochemistry, 6th ed., Oxford, Pergamom Press, 1993.",mp-539
406,Ga2Se3,-0.8473826870959954,0.026117959533780676,cubic,"O. Kubaschewski, C. Alcock, P. Spencer, Materials Thermochemistry, 6th ed., Oxford, Pergamom Press, 1993.",mp-1340
407,Ga2Te3,-0.5698275457012942,0.03461666065191566,cubic,"O. Kubaschewski, C. Alcock, P. Spencer, Materials Thermochemistry, 6th ed., Oxford, Pergamom Press, 1993.",
408,GaAs,-0.3839961907645135,0.032647449417225846,cubic,"O. Kubaschewski, C. Alcock, P. Spencer, Materials Thermochemistry, 6th ed., Oxford, Pergamom Press, 1993.",mp-2534
409,GaBr3,-1.001706662277739,0.006477668535163858,cryst,"O. Kubaschewski, C. Alcock, P. Spencer, Materials Thermochemistry, 6th ed., Oxford, Pergamom Press, 1993.",mp-30953
410,GaCl3,-1.3595330721601908,0.011918910104701499,cryst,"O. Kubaschewski, C. Alcock, P. Spencer, Materials Thermochemistry, 6th ed., Oxford, Pergamom Press, 1993.",mp-30952
411,GaI3,-0.6200424321858846,0.03135191571019307,orth,"O. Kubaschewski, C. Alcock, P. Spencer, Materials Thermochemistry, 6th ed., Oxford, Pergamom Press, 1993.",mp-30954
412,GaN,-0.5679619771631671,0.047675640418805995,hex,"O. Kubaschewski, C. Alcock, P. Spencer, Materials Thermochemistry, 6th ed., Oxford, Pergamom Press, 1993.",mp-804
413,GaP,-0.5311688198834364,0.04352993255630113,cubic,"O. Kubaschewski, C. Alcock, P. Spencer, Materials Thermochemistry, 6th ed., Oxford, Pergamom Press, 1993.",mp-2490
414,GaS,-1.0841026060450234,0.09742413476886444,hex,"O. Kubaschewski, C. Alcock, P. Spencer, Materials Thermochemistry, 6th ed., Oxford, Pergamom Press, 1993.",mp-2507
415,GaSb,-0.2274957189549547,0.008809629207822847,cubic,"O. Kubaschewski, C. Alcock, P. Spencer, Materials Thermochemistry, 6th ed., Oxford, Pergamom Press, 1993.",mp-1156
416,GaSe,-0.8239594376728429,0.06529489883445169,hex,"O. Kubaschewski, C. Alcock, P. Spencer, Materials Thermochemistry, 6th ed., Oxford, Pergamom Press, 1993.",mp-1572
417,GaTe,-0.6503579209304514,0.06529489883445169,monocl,"O. Kubaschewski, C. Alcock, P. Spencer, Materials Thermochemistry, 6th ed., Oxford, Pergamom Press, 1993.",mp-10009
418,Gd2O3,-3.7864822762188224,0.006840417973133034,cubic,"O. Kubaschewski, C. Alcock, P. Spencer, Materials Thermochemistry, 6th ed., Oxford, Pergamom Press, 1993.",mp-504886
419,GdBr3,-2.147735779518929,,hex,"O. Kubaschewski, C. Alcock, P. Spencer, Materials Thermochemistry, 6th ed., Oxford, Pergamom Press, 1993.",mp-27182
420,GdCl3,-2.6125732736022873,0.008550522466416292,orth,"O. Kubaschewski, C. Alcock, P. Spencer, Materials Thermochemistry, 6th ed., Oxford, Pergamom Press, 1993.",mp-23265
421,GdF3,-4.4024826432387645,0.011918910104701499,orth,"O. Kubaschewski, C. Alcock, P. Spencer, Materials Thermochemistry, 6th ed., Oxford, Pergamom Press, 1993.",
424,GeP,-0.14095406732516555,0.054412415695376415,cryst,"O. Kubaschewski, C. Alcock, P. Spencer, Materials Thermochemistry, 6th ed., Oxford, Pergamom Press, 1993.",mp-1095275
425,GeS,-0.39436046042077566,0.023837820209402998,orth,"O. Kubaschewski, C. Alcock, P. Spencer, Materials Thermochemistry, 6th ed., Oxford, Pergamom Press, 1993.",mp-2242
426,GeS2,-0.5420513030225117,0.04352993255630113,orth,"O. Kubaschewski, C. Alcock, P. Spencer, Materials Thermochemistry, 6th ed., Oxford, Pergamom Press, 1993.",mp-542613
427,GeSe,-0.357567303141045,0.054412415695376415,orth,"O. Kubaschewski, C. Alcock, P. Spencer, Materials Thermochemistry, 6th ed., Oxford, Pergamom Press, 1993.",mp-700
428,GeSe2,-0.3903874903858752,0.07220441193862646,hex,"O. Kubaschewski, C. Alcock, P. Spencer, Materials Thermochemistry, 6th ed., Oxford, Pergamom Press, 1993.",mp-1190257
429,GeTe,-0.2513335391643577,0.054412415695376415,trig,"O. Kubaschewski, C. Alcock, P. Spencer, Materials Thermochemistry, 6th ed., Oxford, Pergamom Press, 1993.",mp-938
431,H4IN,-0.3490806936708423,,cr,https://janaf.nist.gov/tables/H-089.html,mp-643062
432,HfB2,-1.136269429981543,0.030401857658369044,hex,"O. Kubaschewski, C. Alcock, P. Spencer, Materials Thermochemistry, 6th ed., Oxford, Pergamom Press, 1993.",mp-1994
433,HfBr4,-1.5880133967324903,0.004352993255630113,cubic,"O. Kubaschewski, C. Alcock, P. Spencer, Materials Thermochemistry, 6th ed., Oxford, Pergamom Press, 1993.",
434,HfC,-1.1706442576748126,0.032647449417225846,cubic,"O. Kubaschewski, C. Alcock, P. Spencer, Materials Thermochemistry, 6th ed., Oxford, Pergamom Press, 1993.",mp-21075
435,HfCl4,-2.0529545335124113,0.004352993255630113,cubic,"O. Kubaschewski, C. Alcock, P. Spencer, Materials Thermochemistry, 6th ed., Oxford, Pergamom Press, 1993.",mp-29422
436,HfF4,-4.001644514282825,0.007876844938759252,tetrag,"O. Kubaschewski, C. Alcock, P. Spencer, Materials Thermochemistry, 6th ed., Oxford, Pergamom Press, 1993.",mp-31033
437,HfI4,-1.023367985859327,0.04332264716317588,cubic,"O. Kubaschewski, C. Alcock, P. Spencer, Materials Thermochemistry, 6th ed., Oxford, Pergamom Press, 1993.",mp-569059
438,HfN,-1.9360455717897742,0.012955337070327717,cubic,"O. Kubaschewski, C. Alcock, P. Spencer, Materials Thermochemistry, 6th ed., Oxford, Pergamom Press, 1993.",mp-2828
439,HfO2,-3.8606904469576597,0.005873086138548565,monocl,"O. Kubaschewski, C. Alcock, P. Spencer, Materials Thermochemistry, 6th ed., Oxford, Pergamom Press, 1993.",mp-352
440,Hg2SO4,-1.1002412545097744,0.015546404484393261,monocl,"O. Kubaschewski, C. Alcock, P. Spencer, Materials Thermochemistry, 6th ed., Oxford, Pergamom Press, 1993.",mp-7461
442,HgBr,-0.5290441446039027,,cr,https://janaf.nist.gov/tables/Br-054.html,mp-23177
443,HgBr2,-0.5855812355788128,0.004491183517713608,orth,"O. Kubaschewski, C. Alcock, P. Spencer, Materials Thermochemistry, 6th ed., Oxford, Pergamom Press, 1993.",mp-23292
445,HgCl,-0.6871510782101821,0.00414570786250487,tetrag,"O. Kubaschewski, C. Alcock, P. Spencer, Materials Thermochemistry, 6th ed., Oxford, Pergamom Press, 1993.",mp-22897
447,HgCl2,-0.7949394826353088,0.007945940069800999,orth,"O. Kubaschewski, C. Alcock, P. Spencer, Materials Thermochemistry, 6th ed., Oxford, Pergamom Press, 1993.",mp-22855
449,HgF,-1.2577041227874146,0.054412415695376415,tetrag,"O. Kubaschewski, C. Alcock, P. Spencer, Materials Thermochemistry, 6th ed., Oxford, Pergamom Press, 1993.",mp-706
452,HgF2,-1.459924842807298,,cr,https://janaf.nist.gov/tables/F-063.html,mp-8177
453,HgI,-0.30833702227379967,0.00414570786250487,tetrag,"O. Kubaschewski, C. Alcock, P. Spencer, Materials Thermochemistry, 6th ed., Oxford, Pergamom Press, 1993.",mp-22859
455,HgI2,-0.36413134059001107,0.005873086138548565,tetrag,"O. Kubaschewski, C. Alcock, P. Spencer, Materials Thermochemistry, 6th ed., Oxford, Pergamom Press, 1993.",mp-583213
458,HgS,-0.2762077863393869,0.021764966278150565,hex,"O. Kubaschewski, C. Alcock, P. Spencer, Materials Thermochemistry, 6th ed., Oxford, Pergamom Press, 1993.",mp-1123
459,HgSO4,-1.2164197819899705,0.018137471898458806,orth,"O. Kubaschewski, C. Alcock, P. Spencer, Materials Thermochemistry, 6th ed., Oxford, Pergamom Press, 1993.",mp-3228
460,HgSe,-0.2254228650237023,,cubic,"O. Kubaschewski, C. Alcock, P. Spencer, Materials Thermochemistry, 6th ed., Oxford, Pergamom Press, 1993.",mp-820
461,HgSeO3,-0.7572135410865144,,cryst,"O. Kubaschewski, C. Alcock, P. Spencer, Materials Thermochemistry, 6th ed., Oxford, Pergamom Press, 1993.",mp-557224
462,HgTe,-0.166864741465821,0.025910674140655433,cubic,"O. Kubaschewski, C. Alcock, P. Spencer, Materials Thermochemistry, 6th ed., Oxford, Pergamom Press, 1993.",mp-2730
463,Ho2O3,-3.899245530078955,0.011193411228763148,cubic,"O. Kubaschewski, C. Alcock, P. Spencer, Materials Thermochemistry, 6th ed., Oxford, Pergamom Press, 1993.",mp-812
464,HoCl3,-2.6073911387741564,0.007514095500790075,monocl,"O. Kubaschewski, C. Alcock, P. Spencer, Materials Thermochemistry, 6th ed., Oxford, Pergamom Press, 1993.",
465,HoF3,-4.441607761191155,0.016323724708612923,orth,"O. Kubaschewski, C. Alcock, P. Spencer, Materials Thermochemistry, 6th ed., Oxford, Pergamom Press, 1993.",mp-561877
466,In2(SO4)3,-1.6616362910672091,0.0020118876391567748,hex,"O. Kubaschewski, C. Alcock, P. Spencer, Materials Thermochemistry, 6th ed., Oxford, Pergamom Press, 1993.",mp-541450
468,In2S3,-0.7371068579533658,0.04332264716317588,cubic,"O. Kubaschewski, C. Alcock, P. Spencer, Materials Thermochemistry, 6th ed., Oxford, Pergamom Press, 1993.",mp-22216
469,In2Se3,-0.6765795231607947,0.03461666065191566,hex,"O. Kubaschewski, C. Alcock, P. Spencer, Materials Thermochemistry, 6th ed., Oxford, Pergamom Press, 1993.",mp-1017565
470,In2Te3,-0.3971588132279665,0.008705986511260226,cubic,"O. Kubaschewski, C. Alcock, P. Spencer, Materials Thermochemistry, 6th ed., Oxford, Pergamom Press, 1993.",mp-622511
471,InAs,-0.2990091795831637,0.017101044932832585,cubic,"O. Kubaschewski, C. Alcock, P. Spencer, Materials Thermochemistry, 6th ed., Oxford, Pergamom Press, 1993.",mp-20305
472,InBr,-0.10623376397668728,0.04352993255630113,orth,"O. Kubaschewski, C. Alcock, P. Spencer, Materials Thermochemistry, 6th ed., Oxford, Pergamom Press, 1993.",mp-22870
473,InBr3,-1.0646696004395317,0.021764966278150565,cryst,"O. Kubaschewski, C. Alcock, P. Spencer, Materials Thermochemistry, 6th ed., Oxford, Pergamom Press, 1993.",mp-570219
474,InCl,-0.9649135049980083,0.04352993255630113,cubic,"O. Kubaschewski, C. Alcock, P. Spencer, Materials Thermochemistry, 6th ed., Oxford, Pergamom Press, 1993.",mp-23276
475,InCl2,-1.2533856770973055,0.057694434419859435,orth,"O. Kubaschewski, C. Alcock, P. Spencer, Materials Thermochemistry, 6th ed., Oxford, Pergamom Press, 1993.",
476,InCl3,-1.39192141483601,0.021764966278150565,monocl,"O. Kubaschewski, C. Alcock, P. Spencer, Materials Thermochemistry, 6th ed., Oxford, Pergamom Press, 1993.",
477,InI,-0.600609426580393,0.04352993255630113,orth,"O. Kubaschewski, C. Alcock, P. Spencer, Materials Thermochemistry, 6th ed., Oxford, Pergamom Press, 1993.",mp-23202
478,InI3,-0.608123522081183,0.021764966278150565,monocl,"O. Kubaschewski, C. Alcock, P. Spencer, Materials Thermochemistry, 6th ed., Oxford, Pergamom Press, 1993.",mp-567789
479,InN,-0.715652819764903,0.05182134828131087,hex,"O. Kubaschewski, C. Alcock, P. Spencer, Materials Thermochemistry, 6th ed., Oxford, Pergamom Press, 1993.",mp-22205
480,InP,-0.3902147525582708,0.04352993255630113,cubic,"O. Kubaschewski, C. Alcock, P. Spencer, Materials Thermochemistry, 6th ed., Oxford, Pergamom Press, 1993.",mp-20351
481,InS,-0.6938878534867525,0.054412415695376415,orth,"O. Kubaschewski, C. Alcock, P. Spencer, Materials Thermochemistry, 6th ed., Oxford, Pergamom Press, 1993.",mp-19795
482,InSb,-0.15805511225799815,0.00414570786250487,cubic,"O. Kubaschewski, C. Alcock, P. Spencer, Materials Thermochemistry, 6th ed., Oxford, Pergamom Press, 1993.",mp-20012
483,InSe,-0.6114919097194682,0.06529489883445169,rhomb,"O. Kubaschewski, C. Alcock, P. Spencer, Materials Thermochemistry, 6th ed., Oxford, Pergamom Press, 1993.",mp-1079260
484,InTe,-0.3731137076254383,0.008809629207822847,tetrag,"O. Kubaschewski, C. Alcock, P. Spencer, Materials Thermochemistry, 6th ed., Oxford, Pergamom Press, 1993.",mp-2597
485,Ir2S3,-0.5169697704543572,,orth,"O. Kubaschewski, C. Alcock, P. Spencer, Materials Thermochemistry, 6th ed., Oxford, Pergamom Press, 1993.",mp-1188655
486,IrCl3,-0.6353297299288713,,cryst,"O. Kubaschewski, C. Alcock, P. Spencer, Materials Thermochemistry, 6th ed., Oxford, Pergamom Press, 1993.",mp-27666
487,IrO2,-0.8616162840905953,,tetrag,"O. Kubaschewski, C. Alcock, P. Spencer, Materials Thermochemistry, 6th ed., Oxford, Pergamom Press, 1993.",mp-2723
488,IrS2,-0.45982809708283173,,orth,"O. Kubaschewski, C. Alcock, P. Spencer, Materials Thermochemistry, 6th ed., Oxford, Pergamom Press, 1993.",mp-2833
490,K2B4O7,-2.658219908923002,,cr,https://janaf.nist.gov/tables/B-115.html,mp-17166
492,K2CO3,-1.986795945539938,,cr,https://janaf.nist.gov/tables/C-073.html,mp-3963
493,K2CrO4,-2.058492014728757,0.006218561793757305,orth,"O. Kubaschewski, C. Alcock, P. Spencer, Materials Thermochemistry, 6th ed., Oxford, Pergamom Press, 1993.",mp-19232
496,K2O,-1.25466739177813,,cr,https://janaf.nist.gov/tables/K-012.html,mp-971
499,K2O2,-1.2846615881633525,,cr,https://janaf.nist.gov/tables/K-013.html,mp-2672
500,K2S,-1.3010613175161116,0.04352993255630113,cubic,"O. Kubaschewski, C. Alcock, P. Spencer, Materials Thermochemistry, 6th ed., Oxford, Pergamom Press, 1993.",mp-1022
504,K2SO4,-2.10874391646212,,cr,https://janaf.nist.gov/tables/K-018.html,mp-4529
505,K2Si2O5,-2.8889825874072126,0.009673318345844695,monocl,"O. Kubaschewski, C. Alcock, P. Spencer, Materials Thermochemistry, 6th ed., Oxford, Pergamom Press, 1993.",mp-29825
506,K2Si4O9,-2.9820076654997525,0.01043336478730392,tricli,"O. Kubaschewski, C. Alcock, P. Spencer, Materials Thermochemistry, 6th ed., Oxford, Pergamom Press, 1993.",mp-558603
508,K2SiO3,-2.674119761577724,,cr,https://janaf.nist.gov/tables/K-014.html,mp-15379
509,K2WO4,-2.3417326983348934,,monocl,"O. Kubaschewski, C. Alcock, P. Spencer, Materials Thermochemistry, 6th ed., Oxford, Pergamom Press, 1993.",mp-18780
510,K3AlF6,-3.447467015762487,0.0143026921256418,tetrag,"O. Kubaschewski, C. Alcock, P. Spencer, Materials Thermochemistry, 6th ed., Oxford, Pergamom Press, 1993.",mp-1201513
512,K3PO4,-2.575780116322557,0.009716502802745788,cubic,"O. Kubaschewski, C. Alcock, P. Spencer, Materials Thermochemistry, 6th ed., Oxford, Pergamom Press, 1993.",mp-557753
513,KAl(SO4)2,-2.1334849087415684,0.0028501741554720975,hex,"O. Kubaschewski, C. Alcock, P. Spencer, Materials Thermochemistry, 6th ed., Oxford, Pergamom Press, 1993.",mp-7645
515,KBF4,-3.259528259328933,,cr,https://janaf.nist.gov/tables/B-041.html,mp-4929
516,KBO2,-2.5781120769952155,0.021764966278150565,hex,"O. Kubaschewski, C. Alcock, P. Spencer, Materials Thermochemistry, 6th ed., Oxford, Pergamom Press, 1993.",mp-3919
519,KBr,-2.0407143310483655,,cr,https://janaf.nist.gov/tables/Br-015.html,mp-23251
521,KCN,-0.3920112259653563,,cr,https://janaf.nist.gov/tables/C-069.html,mp-1077078
522,KCaCl3,-2.5792521466574043,,orth,"O. Kubaschewski, C. Alcock, P. Spencer, Materials Thermochemistry, 6th ed., Oxford, Pergamom Press, 1993.",
523,KCl,-2.2625200659620326,0.002072853931252435,cubic,"O. Kubaschewski, C. Alcock, P. Spencer, Materials Thermochemistry, 6th ed., Oxford, Pergamom Press, 1993.",mp-23193
525,KClO3,-0.8065474646503225,0.00601127640063206,monocl,"O. Kubaschewski, C. Alcock, P. Spencer, Materials Thermochemistry, 6th ed., Oxford, Pergamom Press, 1993.",mp-556084
527,KClO4,-0.7429713072005342,,cr,https://janaf.nist.gov/tables/Cl-040.html,mp-23526
531,KH,-0.2995273930659768,0.0010364269656262175,cubic,"O. Kubaschewski, C. Alcock, P. Spencer, Materials Thermochemistry, 6th ed., Oxford, Pergamom Press, 1993.",mp-24084
533,KHF2,-2.4120246557536142,0.0033683876382852064,tetrag,"O. Kubaschewski, C. Alcock, P. Spencer, Materials Thermochemistry, 6th ed., Oxford, Pergamom Press, 1993.",mp-23846
536,KI,-1.6992220101441833,,cr,https://janaf.nist.gov/tables/I-004.html,mp-22898
537,KNO3,-1.025026269004329,0.003523851683129139,rhomb,"O. Kubaschewski, C. Alcock, P. Spencer, Materials Thermochemistry, 6th ed., Oxford, Pergamom Press, 1993.",mp-5158
538,KO2,-0.9828782390688628,0.008636891380218477,tetrag,"O. Kubaschewski, C. Alcock, P. Spencer, Materials Thermochemistry, 6th ed., Oxford, Pergamom Press, 1993.",mp-1866
541,La2O3,-3.7205655212049953,0.00601127640063206,cubic,"O. Kubaschewski, C. Alcock, P. Spencer, Materials Thermochemistry, 6th ed., Oxford, Pergamom Press, 1993.",mp-2292
542,La2S3,-2.454466339996008,0.026117959533780676,rhomb,"O. Kubaschewski, C. Alcock, P. Spencer, Materials Thermochemistry, 6th ed., Oxford, Pergamom Press, 1993.",mp-7475
543,La2Se3,-1.9339727178585218,0.06944060669695656,cubic,"O. Kubaschewski, C. Alcock, P. Spencer, Materials Thermochemistry, 6th ed., Oxford, Pergamom Press, 1993.",
544,La2Te3,-1.626153909067535,0.05285777524693709,cubic,"O. Kubaschewski, C. Alcock, P. Spencer, Materials Thermochemistry, 6th ed., Oxford, Pergamom Press, 1993.",
545,LaAl2,-0.521668239365196,0.1157343444949276,cubic,"O. Kubaschewski, C. Alcock, P. Spencer, Materials Thermochemistry, 6th ed., Oxford, Pergamom Press, 1993.",mp-2694
546,LaAlO3,-3.7184926672737424,0.006840417973133034,orth,"O. Kubaschewski, C. Alcock, P. Spencer, Materials Thermochemistry, 6th ed., Oxford, Pergamom Press, 1993.",mp-2920
547,LaBr3,-2.1886746446611647,0.004404814603911423,hex,"O. Kubaschewski, C. Alcock, P. Spencer, Materials Thermochemistry, 6th ed., Oxford, Pergamom Press, 1993.",mp-23263
548,LaCl3,-2.7742558802399775,0.0033683876382852064,hex,"O. Kubaschewski, C. Alcock, P. Spencer, Materials Thermochemistry, 6th ed., Oxford, Pergamom Press, 1993.",mp-22896