,likely_mpid,expt_gap,formula
844,mp-567747,0.0,Co7Mo6
845,,0.0,Co7Re17O48
846,mp-452,0.4,CoAs3
847,mp-22546,0.0,CoAsRh
848,mp-553946,0.6,CoAsS
849,mp-505511,0.2,CoAsSe
850,,0.0,CoCu2Sn
851,mp-21237,0.0,CoGe
852,,0.0,CoH2(SN)4
853,mp-1025557,0.0,CoMoP2
854,mp-448,0.0,CoN
855,,0.0,CoOF
856,mp-14285,0.35,CoP2
857,mp-1944,0.45,CoP3
858,,0.4,CoPS
859,mp-755,0.17,CoSb2
860,mp-1317,0.49,CoSb3
861,mp-568349,0.0,Cr(FeSe2)2
862,mp-542188,0.0,Cr(MoS2)2
863,,0.0,Cr10Sb3Te7
864,mp-22803,0.0,Cr2CuS4
865,mp-22625,0.0,Cr2CuTe4
866,mp-19821,0.0,Cr2GeC
867,,0.0,Cr2HO4
868,mp-5602,0.0,Cr2HgSe4
869,mp-27512,0.0,Cr2NiS4
870,mp-19399,3.4,Cr2O3
871,,0.0,Cr2P3O11
872,,0.0,Cr2SbTe
873,,0.0,Cr3N2
874,,0.0,Cr3Ni(PO4)6
875,mp-7806,0.0,Cr3P
876,mp-27840,1.59,Cr3Se4
877,,0.0,Cr4As3
878,,0.0,Cr4Cu3Te8
879,mp-1196316,0.0,Cr7C3
880,mp-20717,0.0,CrAs
881,mp-1197022,1.8,CrB2(PbO2)6
882,,2.4,CrBi2I2O11
883,,0.0,CrCo2Bi
884,mp-10394,0.0,CrCoGe
885,mp-570863,0.0,CrCoPt2
886,,0.0,CrCu2Si
887,,0.0,CrFe2Sb
888,mp-21495,0.0,CrFeP
889,mp-504919,0.0,CrH9(CN2)3
890,,0.0,CrIrO4
891,,0.0,CrIrO6
892,,0.0,CrNi3
893,mp-4989,0.0,CrNiAs
894,,0.0,CrNiP2O9
895,mp-19177,0.23,CrO2
896,mp-510421,1.4,CrO3
897,mp-19146,2.25,CrPbO4
898,mp-22498,0.14,CrSb2
899,mp-11191,1.3,CrSi2
900,,0.17,CrTe2
901,mp-570837,0.0,Cs(AsRu)2
902,mp-17022,0.0,Cs(MoO3)3
903,,2.1,Cs0.4K0.6P1Se6
904,,1.0,Cs1.13Cd1.13Bi2.87Se6
905,,1.28,Cs1.43Cd1.43Bi2.57S6
906,,3.16,Cs10Cd4Sn4S17
907,mp-1078250,2.19,Cs2AgBiBr6
908,mp-1078258,2.77,Cs2AgBiCl6
909,mp-1019602,4.13,Cs2Al2B2O7
910,mp-1019605,6.31,Cs2Ba3(P2O7)2
911,,2.63,Cs2Cd(PSe3)2
912,,1.66,Cs2Cd0.25Hg5.75S7
913,,1.84,Cs2Cd1.35Hg4.65S7
914,,1.7,Cs2Cd2Bi2S5
915,mp-1201213,4.76,Cs2Cd3(B4O7)4
916,mp-567386,2.48,Cs2Cd3Te4
917,mp-28497,0.0,Cs2CrCl4
918,,2.4,Cs2Cu(PS3)3
919,mp-1190579,1.6,Cs2Cu2Sb2S5
920,,1.38,Cs2DyCu3Te4
921,,3.26,Cs2Ga2S5
922,,1.95,Cs2Ga2Se5
923,,2.15,Cs2Hg(ICl)2
924,mp-540574,2.56,Cs2Hg3I8
925,mp-1105419,2.8,Cs2Hg3S4
926,mp-17905,1.63,Cs2Hg6S7
927,,1.0,Cs2La1.19Bi8.81S16
928,mp-966802,7.3,Cs2Li3(BO2)5
929,mp-1195667,2.04,Cs2MgGe3Se8
930,mp-1195633,1.92,Cs2MgSn3Se8
931,,0.0,Cs2Mo15S19
932,mp-558211,0.0,Cs2NaCoF6
933,,0.0,Cs2NaMgF6
934,mp-554858,0.0,Cs2NaMnF6
935,mp-15223,2.19,Cs2NbCuSe4
936,,1.6,Cs2P2PdSe6
937,mp-31285,1.5,Cs2PdSe8
938,,2.4,Cs2Pt(IO3)6
939,,0.0,Cs2SCl6F
940,mp-1191118,0.62,Cs2Sb
941,,0.0,Cs2SeClF6
942,,6.53,Cs2SiB4O9
943,,2.06,Cs2Sn(PSe3)2
944,mp-1195304,2.34,Cs2Sn3(SbS5)2
945,mp-573763,3.5,Cs2Te
946,mp-23405,2.12,Cs2TeBr6
947,mp-540957,1.5,Cs2TeI6
948,mp-640389,2.8,Cs2Th(PS3)3
949,mp-10488,2.44,Cs2Ti(AgS2)2
950,mp-8684,1.77,Cs2VAgS4
951,,4.3,Cs2Zn3(SeO3)4
952,,3.33,Cs2ZnGe3S8
953,mp-1194749,2.31,Cs2ZnGe3Se8
954,,1.07,Cs2ZnGe3Te8
955,mp-1194701,2.12,Cs2ZnSn3Se8
956,,2.74,Cs39Ga53(Se16Cl)6
957,mp-542220,0.6,Cs3As
958,mp-27544,2.5,Cs3Bi2Br9
959,mp-669458,1.8,Cs3Bi2I9
960,mp-1019615,6.53,Cs3Li4(BO2)7
961,,0.3,Cs3NaZn2Ge21
962,mp-683903,1.35,Cs3Nb2AsSe11
963,mp-1201443,3.22,Cs3Nb9(TeO8)4
964,,3.27,Cs3PW3O13
965,mp-10378,1.6,Cs3Sb
966,mp-579560,2.3,Cs3Sb2Br9
967,mp-23029,1.89,Cs3Sb2I9
968,,2.96,Cs3Sn3Cl7F2
969,mp-541084,0.0,Cs3V2Cl9
970,,2.0,Cs4Ag9(SbS3)4
971,mp-1204289,1.02,Cs4BiAs3Se7
972,,1.14,Cs4Ga4Si19
973,mp-1195417,2.0,Cs4Ge(PSe3)4
974,mp-1202502,1.95,Cs4Ge5(PbS4)4
975,,2.2,Cs4In8GeSe16
976,mp-680246,2.35,Cs4Zr3S14
977,,1.85,Cs5Bi(PSe3)4
978,mp-581739,0.0,Cs5Mo21Se23
979,,2.17,Cs5P5Se12
980,,0.22,Cs6.4Na1.6Ga8Ge38
981,mp-866615,2.7,CsAg2AsS3
982,,2.04,CsAg2TeS6
983,mp-9206,0.65,CsAg5Te3
984,mp-28610,0.0,CsAgCl3
985,mp-554408,2.04,CsAgSb4S7
986,mp-2667,2.3,CsAu
987,mp-3977,7.42,CsB3O5
988,mp-23163,0.55,CsBi2
989,mp-567928,0.43,CsBi3Se5
990,mp-541378,1.39,CsBiS2
991,,1.07,CsBiSe2
992,,0.0,CsCaO3
993,,3.09,CsCd4Ga5S12
994,,2.21,CsCd4Ga5Se12
995,,1.67,CsCd4Ga5Te12
996,,1.62,CsCd4In5Se12
997,,1.42,CsCd4In5Te12
998,mp-1191636,2.58,CsCdBO3
999,,2.4,CsCdInSe3
1000,mp-574426,2.4,CsCeCdSe3
1001,mp-574472,1.94,CsCeHgSe3
1002,,1.7,CsCu(SbS2)2
1003,mp-1196438,2.3,CsCu2AsS3
1004,,1.63,CsCu2SbS3
1005,,1.99,CsDy9(Cd2Se9)2
1006,,2.09,CsEr9(Cd2Se9)2
1007,mp-7155,2.56,CsErZnSe3
1008,mp-8396,0.0,CsEuF3
1009,mp-1784,10.0,CsF
1010,,1.87,CsGa(SnSe3)2
1011,mp-30574,0.0,CsGa7
1012,mp-562726,3.0,CsGaS3
1013,,1.97,CsGaSnSe4
1014,,0.0,CsGdO3
1015,mp-1104469,2.13,CsGdZnTe3
1016,,4.89,CsGe5BO12
1017,mp-558804,5.76,CsGeB3O7
1018,mp-28377,1.6,CsGeI3
1019,,4.77,CsH3(SeO3)2
1020,,2.06,CsHo9(Cd2Se9)2
1021,,1.78,CsIn(SnSe3)2
1022,,2.32,CsInGeSe4
1023,mp-1194853,2.3,CsInHgS3
1024,,0.0,CsInI3
1025,mp-559459,3.4,CsInS2
1026,mp-1200720,2.81,CsInSe2
1027,,2.9,CsInSnS4
1028,mp-1199743,2.16,CsInTe2
1029,mp-1192413,3.9,CsInTe3O8
1030,,0.0,CsIr
1031,,0.0,CsIrO3
1032,,2.36,CsK(PSe4)2
1033,mp-11124,2.46,CsLaHgSe3
1034,mp-1019715,6.89,CsLi(B3O5)2
1035,,6.19,CsLiCO3
1036,mp-1202825,1.86,CsLu7S11
1037,mp-1203743,1.78,CsLu7Se11
1038,,0.0,CsMg149
1039,,1.55,CsMn4Ga5Te12
1040,,1.79,CsMn4In5Se12
1041,,1.48,CsMn4In5Te12
1042,mp-510378,0.0,CsMnSb
1043,,0.8,CsNa2Sb
1044,,4.67,CsNa8(B7O12)3
1045,mp-570455,0.0,CsNb6I11
1046,,4.2,CsNbSe2O7
1047,mp-1181552,0.0,CsNi2F6
1048,mp-1192530,4.39,CsPPbO4
1049,,2.44,CsPSe4
1050,mp-1194666,1.9,CsPSe6
1051,,2.41,CsRb(PSe4)2
1052,,1.5,CsRb2Sb
1053,,0.0,CsRbP
1054,mp-1195448,4.68,CsSb(SO4)2
1055,mp-561639,2.8,CsSbS2
1056,mp-2969,1.7,CsSbSe2
1057,,0.43,CsSbTe2
1058,mp-1194629,5.2,CsSc(SeO3)2
1059,,0.0,CsScBr3
1060,mp-510062,2.45,CsSmCdSe3
1061,mp-7212,2.37,CsSmHgSe3
1062,,0.0,CsSn3
1063,,3.88,CsTa3(SeO6)2
1064,,2.29,CsTaPSe6
1065,,1.95,CsTb9(Cd2Se9)2
1066,mp-638078,2.12,CsTbZnTe3
1067,mp-28283,0.0,CsTiCl3
1068,mp-504701,0.0,CsTiF4
1069,,2.16,CsTm9(Cd2Se9)2
1070,mp-13348,0.0,CsUCuS3
1071,mp-12324,0.0,CsVP2S7
1072,mp-30974,0.0,CsWCl6
1073,mp-11116,2.54,CsYCdSe3
1074,mp-11123,2.54,CsYHgSe3
1075,,3.4,CsYTe3O8
1076,mp-542948,0.95,CsYbCoSe3
1077,,1.59,CsYbMnSe3
1078,mp-1195000,5.69,CsZn2B3O7
1079,,1.61,CsZn4In5Se12
1080,,1.61,CsZn4In5Te12
1081,,2.0,CsZrPSe6
1082,mp-15065,0.0,Cu(IrS2)2
1083,mp-640926,0.0,Cu(NO3)2
1084,,1.48,Cu0.5Ge1Pb1.75S4
1085,,0.68,Cu0.96Bi2Se3I1
1086,mp-542333,2.3,Cu1.8S1
1087,mp-2004,0.0,Cu10Sb3
1088,,0.0,Cu11Sb4S13
1089,mp-14266,0.0,Cu15Si4
1090,,0.0,Cu18S11
1091,,0.0,Cu23(Sb4S13)2
1092,,0.0,Cu25Se26
1093,mp-1072589,0.53,Cu2GeS3
1094,mp-1181662,0.0,Cu2H3ClO3
1095,mp-6820,0.0,Cu2Hg2SF6
1096,mp-12855,0.0,Cu2HgGeSe4
1097,mp-361,2.58,Cu2O
1098,,0.0,Cu2OF2
1099,mp-510654,0.0,Cu2PHO5
1100,mp-1825,0.0,Cu2Sb
1101,mp-17598,2.64,Cu2Te3O8
1102,,1.65,Cu2WSe4
1103,,0.0,Cu3(BiI4)4
1104,mp-1190666,0.0,Cu3(P2O7)2
1105,,0.72,Cu3Bi6S10I
1106,mp-1194777,2.56,Cu3Hg2(Te3O8)2
1107,mp-580357,0.0,Cu3Pd
1108,mp-9814,0.31,Cu3SbSe4
1109,mp-557136,0.0,Cu3Se2(ClO3)2
1110,mp-21770,0.0,Cu4As2O9
1111,mp-707201,0.0,Cu4H10SO12
1112,mp-30594,0.0,Cu4Pd
1113,,0.8,Cu4Sn7S16
1114,,0.0,Cu4W(SCl)4
1115,mp-1200185,0.0,Cu5(Si2O7)2
1116,,0.0,Cu6PbO8
1117,mp-1192989,0.0,Cu7Hg6
1118,mp-704745,0.0,Cu8O
1119,,0.0,Cu9O13
1120,mp-542333,0.0,Cu9S5
1121,mp-558647,0.0,Cu9Se4(Cl3O7)2
1122,mp-12954,3.61,CuBS2
1123,mp-569715,1.2,CuBi(PSe3)2
1124,mp-624191,0.12,CuBiPbS3
1125,,0.07,CuBiPbSe3
1126,,1.07,CuBiSO
1127,mp-23116,0.82,CuBiSeO
1128,mp-3421,0.0,CuCN2
1129,,0.0,CuClO2
1130,,0.0,CuF
1131,mp-1194904,3.25,CuHg(SeO3)2
1132,mp-619545,0.0,CuMoO4
1133,,4.17,CuN3
1134,,2.7,CuNi(CN)4
1135,,0.0,CuP2(HO3)2
1136,,0.0,CuPO4F
1137,mp-1105187,2.2,CuPS3
1138,mp-1018029,0.0,CuPd
1139,,0.0,CuPtO2
1140,mp-649774,1.31,CuSbPbS3
1141,mp-4468,1.38,CuSbS2
1142,mp-20331,1.05,CuSbSe2
1143,mp-560049,0.0,CuSeO3
1144,mp-984726,0.0,Dy(Al2Cu)4
1145,mp-19771,0.0,Dy(CoGe)2
1146,,0.2,Dy(CuSe)3
1147,mp-2917,0.0,Dy(CuSi)2
1148,,0.34,Dy(CuTe)3
1149,mp-21082,0.0,Dy(GeRu)2
1150,,1.22,Dy(InS2)3
1151,mp-567858,0.0,Dy12C6I17
1152,mp-573622,0.0,Dy12Co7
1153,,0.6,Dy1Te1.4
1154,,0.6,Dy1Te1.45
1155,,0.35,Dy1Te1.7
1156,mp-641314,0.0,Dy2(GePt3)3
1157,,1.92,Dy2(MoO4)3
1158,mp-13431,0.0,Dy2AlCo2
1159,mp-12574,0.0,Dy2C
1160,mp-12977,0.0,Dy2CdPd2
1161,,0.0,Dy2CuOs
1162,,0.0,Dy2MgIn
1163,,0.0,Dy2MgTl
1164,mp-864836,0.0,Dy2Ni12P7
1165,mp-2345,5.0,Dy2O3
1166,mp-1270,2.91,Dy2S3
1167,mp-568064,0.0,Dy2Sn5
1168,mp-1188427,0.69,Dy2Te3
1169,mp-19950,0.0,Dy2Ti3Si4
1170,,0.0,Dy2TlCd
1171,,0.0,Dy2ZnIn
1172,mp-22039,0.0,Dy3(CuGe)4
1173,,2.22,Dy3Al0.5Si1S7
1174,,0.0,Dy3Ga
1175,mp-1189242,2.81,Dy3GaS6
1176,mp-19881,0.0,Dy3InC
1177,mp-14356,0.0,Dy3MnB7
1178,mp-570768,0.0,Dy4CdRh
1179,mp-1196712,2.58,Dy4GaSbS9
1180,mp-1927,0.0,Dy4Sb3
1181,mp-1095296,1.43,Dy4Te3S4
1182,mp-569760,0.0,Dy5Pb3
1183,mp-30623,0.0,Dy5Sn3
1184,mp-10516,0.0,Dy6FeTe2
1185,mp-641778,0.0,Dy7In(CoGe3)4
1186,mp-2167,0.0,DyAg
1187,mp-567574,0.0,DyAgGe
1188,,0.0,DyAgHg2
1189,mp-2627,1.0,DyAs
1190,mp-571041,0.0,DyB2Rh2C
1191,mp-568319,3.3,DyB6
1192,mp-10060,0.0,DyBPd3
1193,mp-1009543,0.0,DyBiPd
1194,mp-30453,0.0,DyBiPt
1195,mp-11294,0.0,DyCd2
1196,mp-8742,0.0,DyCoSi2
1197,mp-22698,0.0,DyFeSi
1198,mp-20122,0.0,DyGe
1199,mp-22177,0.0,DyInAu
1200,mp-22680,0.0,DyInCu2
1201,mp-1078790,0.0,DyInPt2
1202,mp-1358,0.0,DyIr2
1203,mp-1102404,0.0,DyMn2
1204,mp-638084,0.0,DyNiGe2
1205,mp-510152,0.0,DyNiSn
1206,mp-5767,6.38,DyPO4
1207,mp-232,0.0,DyRh
1208,mp-1018675,0.0,DyS2
1209,mp-20281,0.0,DySiIr
1210,mp-570860,0.0,DySn3
1211,,0.0,DySnRu2
1212,,0.0,DyYAg2
1213,mp-1018682,0.0,DyZnGa
1214,,0.0,DyZnRh2
1215,,0.0,DyZrRu2
1216,mp-5068,0.0,DyZrSb
1217,mp-680636,0.0,Er(Al10Cr)2
1218,mp-12082,0.0,Er(CrSi)2
1219,mp-5083,0.0,Er(CuGe)2
1220,mp-640885,0.24,Er(CuTe)3
1221,,1.28,Er(InS2)3
1222,,0.0,Er(ReO4)2
1223,mp-3218,0.0,Er(SiPd)2
1224,mp-866685,0.0,Er2(Ga3Co)3
1225,,0.96,Er2(MoO4)3
1226,mp-9544,0.0,Er2C3
1227,mp-3680,0.0,Er2Fe14B
1228,mp-1018684,0.0,Er2Mg3Ru
1229,mp-9267,0.0,Er2MnC4
1230,mp-679,5.42,Er2O3
1231,mp-209,1.66,Er2Se3
1232,mp-31143,0.0,Er2SnAu2
1233,mp-14643,0.9,Er2Te3
1234,mp-12388,0.0,Er3Al3NiGe2
1235,,0.0,Er3SnC
1236,,0.9,Er3Te4
1237,mp-504627,0.0,Er4NiB13
1238,mp-31466,0.0,Er5Bi3
1239,mp-570864,0.0,Er5NiPb3
1240,mp-31167,0.0,Er5Si3
1241,mp-23039,0.0,Er6MnBi2
1242,mp-569724,0.0,ErAgSn
1243,mp-569739,0.0,ErAl9(Fe2Si3)2
1244,mp-1024985,0.0,ErAlGe
1245,mp-5197,0.0,ErB2Ir3
1246,mp-3093,0.0,ErB2Ru3
1247,mp-1296,3.5,ErB6
1248,mp-10061,0.0,ErBPd3
1249,mp-1198777,3.26,ErBiW2O9
1250,mp-1955,0.0,ErCu
1251,mp-16751,0.0,ErCuPb
1252,mp-1018064,0.0,ErFeC2
1253,mp-11369,0.0,ErHg2
1254,,0.0,ErLu3
1255,mp-30607,0.0,ErMg2
1256,mp-1025001,0.0,ErNi4Au
1257,mp-12965,0.0,ErNi4B
1258,mp-622620,0.0,ErNiSn
1259,mp-30377,0.0,ErPbAu
1260,,0.0,ErRu3
1261,mp-9978,1.07,ErSe2
1262,mp-17093,0.0,ErSiPd
1263,mp-5640,0.0,ErSnAu
1264,mp-1280,0.9,ErTe
1265,mp-30609,0.0,ErTlPd
1266,mp-30614,0.0,ErZn12
1267,mp-13485,0.0,Eu(AlAu)2
1268,mp-1069444,0.0,Eu(AsPd)2
1269,mp-1193071,1.02,Eu(BiSe2)2
1270,,0.44,Eu(BiTe2)2
1271,mp-19774,0.0,Eu(CdSb)2
1272,mp-627640,0.0,Eu(ClO4)3
1273,mp-645690,1.8,Eu(DySe2)2
1274,mp-1193984,1.7,Eu(ErSe2)2
1275,mp-582357,0.0,Eu(FeSi)2
1276,mp-1181942,2.25,Eu(GaS2)2
1277,mp-1201775,2.16,Eu(GaSe2)2
1278,mp-1103807,1.7,Eu(GaTe2)2
1279,mp-1193885,1.8,Eu(HoSe2)2
1280,,0.0,Eu(InAs)2
1281,mp-1105168,1.5,Eu(InS2)2
1282,mp-1104657,1.31,Eu(InSe2)2
1283,,1.22,Eu(InTe2)2
1284,mp-645692,1.7,Eu(LuSe2)2
1285,mp-1006146,0.0,Eu(MgBi)2
1286,mp-672298,0.0,Eu(MnGe)2
1287,mp-580731,0.0,Eu(Ni2B)6
1288,mp-6992,0.0,Eu(NiAs)2
1289,mp-20802,0.0,Eu(POs)2
1290,mp-1194437,1.2,Eu(SbS2)2
1291,mp-1192961,0.95,Eu(SbSe2)2
1292,mp-542964,1.8,Eu(TmSe2)2
1293,mp-19808,0.0,Eu(ZnGe)2
1294,mp-22133,0.0,Eu(ZnSi)2
1295,,2.14,Eu1.75Ag0.5Ge1S4
1296,,0.23,Eu1.83Ta15O32
1297,mp-645591,0.0,Eu2(Ga3Rh)3
1298,mp-22234,0.0,Eu2C(NO)2
1299,mp-22306,0.0,Eu2CuO4
1300,mp-1192354,2.3,Eu2Ga2GeS7
1301,mp-1019739,0.0,Eu2Ge(BO4)2
1302,mp-1182469,4.5,Eu2O3
1303,mp-613052,0.0,Eu2PBr
1304,mp-20209,0.0,Eu2ReO5
1305,mp-1189540,1.02,Eu2Se3
1306,,1.07,Eu2SnSe5
1307,mp-19897,0.0,Eu2TeO2
1308,mp-1188263,0.45,Eu3(InP2)2
1309,,0.6,Eu3As2
1310,mp-556626,0.0,Eu3BWO9
1311,,1.18,Eu3Bi4S9
1312,,1.2,Eu3P2
1313,mp-1103738,1.7,Eu3S4
1314,mp-684111,1.2,Eu3Sb4S9
1315,mp-1200385,1.08,Eu3Sb4Se9
1316,,0.58,Eu3Se4
1317,,0.0,Eu3Sn
1318,,0.31,Eu4Te7
1319,,0.6,Eu7(Ga3Sb4)2
1320,mp-22707,0.0,EuAgSb
1321,mp-1019732,2.74,EuAl2O4
1322,mp-21455,0.0,EuAlO3
1323,,3.46,EuB(SbO4)2
1324,,0.0,EuBi3
1325,,3.63,EuBiW2O9
1326,mp-583684,0.0,EuCd11
1327,mp-542757,0.0,EuClO
1328,mp-583224,0.0,EuCo8P5
1329,mp-555984,1.85,EuCu2SnS4
1330,mp-568497,0.0,EuCu9Sn4
1331,mp-21356,0.0,EuCuSeF
1332,mp-510596,0.0,EuCuSeO
1333,mp-19908,0.0,EuF3
1334,mp-19763,0.0,EuGe3Pt
1335,mp-1102496,1.85,EuH2
1336,mp-1095411,0.26,EuIn2(GeIr)4
1337,mp-20340,1.25,EuN
1338,mp-974769,0.0,EuNiGe3
1339,mp-21394,1.12,EuO
1340,mp-672290,0.0,EuPPt
1341,mp-1018147,0.0,EuPd
1342,mp-19801,0.0,EuRhO3
1343,mp-20587,1.65,EuS
1344,,0.98,EuSb4S7
1345,,0.54,EuSb4Te7
1346,,0.0,EuSbO3
1347,mp-22487,0.0,EuScO3
1348,mp-21009,3.1,EuSe
1349,mp-639138,0.0,EuSeClO3
1350,mp-20387,0.0,EuSn3
1351,,0.0,EuSnAu2
1352,,0.0,EuSnO3
1353,,0.6,EuSnTe2
1354,mp-555860,0.0,EuTiClO3
1355,mp-1079111,0.0,EuTiO3
1356,mp-542584,0.0,EuTl
1357,mp-1261,0.0,EuZn
1358,mp-12466,0.0,Fe(PdSe)2
1359,,0.0,Fe10O9F11
1360,mp-17977,0.0,Fe12As5
1361,mp-1197728,3.52,Fe2B(PO4)3
1362,,0.0,Fe2Cu(PO4)3
1363,,0.0,Fe2O2F3
1364,mp-19770,2.2,Fe2O3
1365,,0.0,Fe2S
1366,mp-973682,0.0,Fe3B
1367,mp-1804,0.0,Fe3N
1368,mp-2199,0.0,Fe3Si
1369,,2.3,Fe4H15(IO8)3
1370,,0.0,Fe4O7F
1371,mp-628588,0.0,Fe4Si2Sn7O16
1372,,0.0,Fe6O7F5
1373,mp-624243,0.0,Fe6W6C
1374,,0.0,Fe9Co7
1375,,0.0,FeAg3(CN)6
1376,,0.23,FeAgSe2
1377,,0.0,FeAs2O7
1378,mp-1101894,0.6,FeAsSe
1379,mp-1197024,2.54,FeBi(SeO3)3
1380,,2.8,FeBi25O39
1381,mp-5436,0.0,FeCo2Si
1382,,0.0,FeCoAs
1383,mp-505244,0.15,FeCuSe2
1384,,0.16,FeCuTe2
1385,mp-571122,5.15,FeI2
1386,,0.0,FeOF
1387,mp-1005,0.0,FeP
1388,mp-570553,0.32,FeP4
1389,mp-1101971,0.25,FePS
1390,mp-21845,0.0,FePd3
1391,,0.0,FeRhO3
1392,mp-21260,0.0,FeSn
1393,,1.22,Ga1As0.1P0.9
1394,,0.3,Ga0.001Te1Pb0.999
1395,,0.37,Ga0.005Te1Pb0.995
1396,,0.42,Ga0.01Te1Pb0.99
1397,,0.37,Ga0.04Te1Pb0.96
1398,,0.34,Ga0.07Te1Pb0.93
1399,,0.69,Ga0.95Hg0.05Sb0.95Te0.05
1400,,0.72,Ga0.99Hg0.01Sb0.99Te0.01
1401,,0.65,Ga0.9Hg0.1Sb0.9Te0.1
1402,,0.71,Ga1.001Sb0.999Se0.003
1403,,0.72,Ga1.001Sb0.999Te0.003
1404,,0.7,Ga1.002Sb0.998Se0.006
1405,,0.7,Ga1.002Sb0.998Te0.006
1406,,0.64,Ga1.005Sb0.995Se0.015
1407,,0.68,Ga1.005Sb0.995Te0.015
1408,,1.59,Ga1.01Cu0.99Se2.01
1409,,0.62,Ga1.01Sb0.99Se0.03
1410,,0.68,Ga1.01Sb0.99Te0.03
1411,,0.63,Ga1.02Sb0.98Se0.06
1412,,0.68,Ga1.02Sb0.98Te0.06
1413,,0.66,Ga1.05Sb0.95Se0.15
1414,,0.68,Ga1.05Sb0.95Te0.15
1415,,1.59,Ga1.1Cu0.9Se2.1
1416,,0.67,Ga1.1Sb0.9Se0.3
1417,,0.7,Ga1.1Sb0.9Te0.3
1418,,1.58,Ga1.2Cu0.8Se2.2
1419,,2.43,Ga1.5Cu0.5S2.5
1420,,1.76,Ga1.5Cu0.5Se2.5
1421,,2.53,Ga1.65Cu0.35S2.65
1422,,1.81,Ga1.65Cu0.35Se2.65
1423,,2.45,Ga1.6Cu0.4S2.6
1424,,2.55,Ga1.7Cu0.3S2.7
1425,,1.92,Ga1.85Cu0.15Se2.85
1426,,2.65,Ga1.8Cu0.2S2.8
1427,,1.86,Ga1.8Cu0.2Se2.8
1428,,2.64,Ga1.95Cu0.05S2.95
1429,,1.96,Ga1.95Cu0.05Se2.95
1430,,1.99,Ga1.99Cu0.01Se2.99
1431,,2.6,Ga1.9Cu0.1S2.9
1432,,2.23,Ga1As0.01P0.99
1433,,2.2,Ga1As0.2P0.8
1434,,2.16,Ga1As0.3P0.7
1435,,2.1,Ga1As0.4P0.6
1436,,2.0,Ga1As0.5P0.5
1437,,1.91,Ga1As0.6P0.4
1438,,1.8,Ga1As0.7P0.3
1439,,1.62,Ga1As0.8P0.2
1440,,1.37,Ga1As0.99P0.01
1441,,1.5,Ga1As0.9P0.1
1442,,0.7,Ga1Sb0.01As0.99
1443,,0.66,Ga1Sb0.14As0.86
1444,,0.65,Ga1Sb0.25As0.75
1445,,0.68,Ga1Sb0.35As0.65
1446,,0.67,Ga1Sb0.3As0.7
1447,,1.1,Ga1Sb0.85As0.15
1448,,1.02,Ga1Sb0.8As0.2
1449,,1.28,Ga1Sb0.95As0.05
1450,,1.37,Ga1Sb0.99As0.01
1451,,4.14,Ga2(TeO3)3
1452,,2.42,Ga2Cu1S3.5
1453,,0.63,Ga2CuSe4
1454,,1.96,Ga2GePbSe6
1455,,0.84,Ga2GeTe3
1456,mp-4809,2.79,Ga2HgS4
1457,mp-4730,1.95,Ga2HgSe4
1458,mp-6959,0.0,Ga2NiS4
1459,mp-1196984,2.38,Ga2PbS4
1460,mp-571171,1.83,Ga2PbSe4
1461,mp-539,2.8,Ga2S3
1462,mp-1196063,4.61,Ga2Se2O7
1463,,2.35,Ga2Si(AgS3)2
1464,,2.17,Ga2SiPbSe6
1465,mp-1194838,2.04,Ga2SnGeS6
1466,,1.09,Ga3CuTe5
1467,mp-21400,0.0,Ga3Pt2
1468,,2.3,Ga3SiAg3Se8
1469,,1.08,Ga4Cu2Te7
1470,,3.08,Ga4PbS7
1471,,3.1,Ga4SnS7
1472,,2.55,Ga4SnSe7
1473,,2.35,Ga5Ge(PbS3)4
1474,,1.91,Ga5Ge(PbSe3)4
1475,mp-31485,0.0,Ga5Pd13
1476,mp-567502,0.0,Ga8Cu3Mo2
1477,mp-31312,0.0,Ga9Rh2
1478,,2.17,GaAgGe3Se8
1479,,2.14,GaAgGe5Se12
1480,,3.0,GaAgGeS4
1481,mp-1105293,2.2,GaAgO2
1482,mp-4899,1.1,GaAgTe2
1483,,0.0,GaAs2W
1484,,0.1,GaBi
1485,,2.99,GaBi25O39
1486,,1.38,GaCuGeSe4
1487,mp-4280,1.47,GaCuO2
1488,mp-19870,0.0,GaFe3
1489,,0.0,GaFeNi2
1490,mp-8211,1.1,GaGeTe
1491,mp-1194398,5.51,GaHSeO4
1492,mp-2490,2.74,GaP
1493,,2.63,GaSiAgSe4
1494,,0.0,GaSiRu2
1495,,1.42,GaTc
1496,,0.0,GaTc2W
1497,,1.62,Gd(CuS)3
1498,,0.14,Gd(CuSe)3
1499,,0.52,Gd(CuTe)3
1500,,1.13,Gd(InS2)3
1501,mp-646399,0.0,Gd(NiGe)2
1502,mp-569302,0.0,Gd(SiRu)2
1503,,1.2,Gd1.05Sc0.95Se3
1504,,1.75,Gd1.47Mn2.04In0.49S5
1505,,1.56,Gd1.87Lu2.13Se6
1506,,1.66,Gd1Mn1.95In1.05S5
1507,mp-582406,0.0,Gd2(Zn2Ge)3
1508,mp-637222,0.0,Gd2AlCo2
1509,,1.44,Gd2Mn4S7
1510,mp-504886,5.3,Gd2O3
1511,mp-608146,2.55,Gd2S3
1512,mp-1188175,2.2,Gd2Se3
1513,mp-1105966,0.74,Gd2Te3
1514,mp-542437,0.0,Gd2Zn17
1515,mp-1200036,1.88,Gd2ZrS5
1516,mp-580327,0.0,Gd3(AlNi3)2
1517,,1.5,Gd3.04Sc0.96S6
1518,,2.34,Gd3Al0.74Si0.7S7
1519,mp-637182,0.0,Gd3Al7Ag2
1520,mp-605854,0.0,Gd3Co11B4
1521,mp-31101,0.0,Gd3ReO7
1522,mp-20036,0.0,Gd3S4
1523,mp-1199284,2.41,Gd4GaSbS9
1524,,2.2,Gd6Ge2.5S14
1525,mp-680956,0.0,Gd6Ta4Al43
1526,mp-510374,0.63,GdAs
1527,,3.48,GdB(SbO4)2
1528,mp-22266,3.6,GdB6
1529,,1.27,GdB66
1530,mp-20965,0.0,GdCd2
1531,,3.8,GdCd4B3O10
1532,mp-19714,0.0,GdGeRu
1533,,4.84,GdH2NO5
1534,mp-19745,0.0,GdInIr
1535,mp-940,1.54,GdN
1536,mp-505604,0.0,GdNiO3
1537,mp-21149,0.0,GdO2
1538,mp-20415,0.0,GdPbAu
1539,mp-510403,0.0,GdSb
1540,mp-21061,0.0,GdSbPd
1541,mp-510490,2.1,GdScS3
1542,mp-1018707,0.0,GdSe2
1543,mp-574283,1.3,GdTe
1544,mp-2497,0.0,GdZn
1545,mp-1018711,0.0,GdZnIn
1546,mp-23352,3.25,Ge(Bi3O5)4
1547,mp-1205339,5.27,Ge(SeO3)2
1548,,0.0,Ge(WO3)6
1549,,0.27,Ge0.01Pb0.99Se1
1550,,0.23,Ge0.01Te0.01Pb0.99Se0.99
1551,,0.32,Ge0.01Te0.99Pb0.99S0.01
1552,,0.32,Ge0.01Te1Pb0.99
1553,,0.34,Ge0.02Te0.98Pb0.98S0.02
1554,,0.28,Ge0.03Pb0.97Se0.97S0.03
1555,,0.29,Ge0.05Pb0.95Se0.95S0.05
1556,,0.28,Ge0.05Pb0.95Se1
1557,,0.4,Ge0.05Te0.95Pb0.95S0.05
1558,,0.34,Ge0.05Te1Pb0.95
1559,,0.28,Ge0.06Te0.06Pb0.94Se0.94
1560,,0.34,Ge0.15Pb0.85Se0.85S0.15
1561,,0.32,Ge0.15Te0.15Pb0.85Se0.85
1562,,0.36,Ge0.15Te1Pb0.85
1563,,0.32,Ge0.1Pb0.9Se0.9S0.1
1564,,0.3,Ge0.1Pb0.9Se1
1565,,0.35,Ge0.1Te1Pb0.9
1566,,0.44,Ge0.25Te1Pb0.75
1567,,0.35,Ge0.2Pb0.8Se1
1568,,0.36,Ge0.2Te0.2Pb0.8Se0.8
1569,,0.4,Ge0.2Te1Pb0.8
1570,,0.56,Ge0.39Te1Pb0.61
1571,,0.4,Ge0.3Pb0.7Se1
1572,,0.48,Ge0.3Te1Pb0.7
1573,,0.49,Ge0.41Te1Pb0.59
1574,,0.51,Ge0.4Te1Pb0.6
1575,mp-10032,0.0,Ge2Os
1576,mp-3534,0.5,Ge2Sb2Te5
1577,,3.3,Ge3Bi3O10.5
1578,,0.0,Ge3Sb
1579,,0.8,Ge40Te5.3I8
1580,mp-28487,0.0,Ge5(Te4As)2
1581,,0.0,GeAs3
1582,mp-27922,1.5,GeI2
1583,mp-733,5.54,GeO2
1584,mp-1095275,0.95,GeP
1585,mp-1198509,4.1,GePb2(SeO3)4
1586,mp-624190,2.4,GePbS3
1587,mp-20061,0.0,GePt2
1588,mp-22239,0.0,GeRh
1589,,0.3,GeTe2
1590,,0.0,H2Se
1591,mp-24354,4.81,H7Se2NO6
1592,,0.0,HPbI3
1593,mp-571367,0.0,Hf(CoSi)2
1594,mp-15986,0.0,Hf(CuP)2
1595,mp-1025167,0.0,Hf(VGa2)2
1596,mp-976724,0.0,Hf(VH2)2
1597,,0.0,Hf2Al3C4
1598,mp-18581,0.0,Hf2Co4P3
1599,mp-2754,0.0,Hf2Fe
1600,mp-9939,0.0,Hf2Ge
1601,mp-1018154,0.0,Hf2Hg
1602,,0.0,Hf2MnIr
1603,mp-861,0.0,Hf2Ni
1604,,0.0,Hf2OsPd
1605,,0.0,Hf2ReRh
1606,mp-10000,0.0,Hf2S
1607,mp-9938,0.0,Hf2Si
1608,,0.0,Hf2Tl
1609,mp-10245,0.0,Hf3(CuSi)4
1610,mp-10076,0.0,Hf3(NiGe)4
1611,mp-504812,0.0,Hf3P
1612,mp-29811,0.0,Hf3P3Pd4
1613,mp-15964,0.0,Hf3Sb
1614,mp-722913,0.0,Hf3Zn3N
1615,mp-1025223,0.0,Hf4Al3
1616,mp-976184,0.0,Hf4Co4Si7
1617,mp-568048,0.0,Hf54Os17
1618,mp-607409,0.0,Hf5CuPb3
1619,,0.0,Hf5Pb
1620,mp-17466,0.0,Hf5Sb3
1621,mp-570870,0.0,Hf5Sb9
1622,mp-17216,0.0,Hf5Si4
1623,mp-21104,0.0,Hf5Sn3
1624,mp-510691,0.0,Hf5Sn4
1625,mp-12884,0.0,Hf5Te4
1626,,0.0,Hf6PbO18
1627,mp-18622,0.0,Hf7P4
1628,mp-16501,0.0,HfAlPd2
1629,mp-29646,0.0,HfAs2
1630,,0.0,HfAsRh
1631,,0.0,HfB
1632,mp-13861,0.0,HfB4Ir3
1633,mp-21075,0.0,HfC
1634,mp-7804,0.0,HfCo3B2
1635,mp-333,0.0,HfFe2
1636,mp-3576,0.0,HfGaCo2
1637,mp-1198529,2.47,HfHg4(AsCl3)2
1638,mp-1202310,3.26,HfHg4(PCl3)2
1639,mp-600125,0.0,HfInCu2
1640,mp-569516,0.0,HfNi5
1641,mp-352,5.55,HfO2
1642,mp-570960,0.0,HfOs2
1643,mp-1007691,0.0,HfPt
1644,mp-985829,2.9,HfS2
1645,mp-985831,2.2,HfSe2