,formula,expt_form_e,uncertainty,phaseinfo,reference,likely_mpid
1559,ErPt3,-0.9701,0.0187,Pm-3m,"Kim, G., Meschel, S., Nash, P. et al. Experimental formation enthalpies for intermetallic phases and other inorganic compounds. Sci Data 4, 170162 (2017). https://doi.org/10.1038/sdata.2017.162",mp-1913
1560,ErIr,-0.8592,0.0218,Pm-3m,"Kim, G., Meschel, S., Nash, P. et al. Experimental formation enthalpies for intermetallic phases and other inorganic compounds. Sci Data 4, 170162 (2017). https://doi.org/10.1038/sdata.2017.162",mp-2713
1561,GdNi,-0.3099,0.0114,Cmcm,"Kim, G., Meschel, S., Nash, P. et al. Experimental formation enthalpies for intermetallic phases and other inorganic compounds. Sci Data 4, 170162 (2017). https://doi.org/10.1038/sdata.2017.162",mp-542632
1562,Gd17Ni83,-0.285,0.0124,P6/mmm,"Kim, G., Meschel, S., Nash, P. et al. Experimental formation enthalpies for intermetallic phases and other inorganic compounds. Sci Data 4, 170162 (2017). https://doi.org/10.1038/sdata.2017.162",
1563,GdRu2,-0.2249,0.0197,P6_3/mmc,"Kim, G., Meschel, S., Nash, P. et al. Experimental formation enthalpies for intermetallic phases and other inorganic compounds. Sci Data 4, 170162 (2017). https://doi.org/10.1038/sdata.2017.162",mp-646926
1564,GdRh,-0.7504,0.0218,Pm-3m,"Kim, G., Meschel, S., Nash, P. et al. Experimental formation enthalpies for intermetallic phases and other inorganic compounds. Sci Data 4, 170162 (2017). https://doi.org/10.1038/sdata.2017.162",mp-1742
1565,GdRh2,-0.6778,0.0166,Fd-3m,"Kim, G., Meschel, S., Nash, P. et al. Experimental formation enthalpies for intermetallic phases and other inorganic compounds. Sci Data 4, 170162 (2017). https://doi.org/10.1038/sdata.2017.162",mp-20084
1566,GdPd,-0.8561,0.0114,Cmcm,"Kim, G., Meschel, S., Nash, P. et al. Experimental formation enthalpies for intermetallic phases and other inorganic compounds. Sci Data 4, 170162 (2017). https://doi.org/10.1038/sdata.2017.162",mp-11427
1567,Gd43Pd57,-0.9172,0.0301,,"Kim, G., Meschel, S., Nash, P. et al. Experimental formation enthalpies for intermetallic phases and other inorganic compounds. Sci Data 4, 170162 (2017). https://doi.org/10.1038/sdata.2017.162",
1568,GdPd3,-0.826,0.028,Pm-3m,"Kim, G., Meschel, S., Nash, P. et al. Experimental formation enthalpies for intermetallic phases and other inorganic compounds. Sci Data 4, 170162 (2017). https://doi.org/10.1038/sdata.2017.162",mp-21427
1569,GdIr2,-0.71,0.0228,Fd-3m,"Kim, G., Meschel, S., Nash, P. et al. Experimental formation enthalpies for intermetallic phases and other inorganic compounds. Sci Data 4, 170162 (2017). https://doi.org/10.1038/sdata.2017.162",
1570,GdPt,-1.1328,0.029,Pnma,"Kim, G., Meschel, S., Nash, P. et al. Experimental formation enthalpies for intermetallic phases and other inorganic compounds. Sci Data 4, 170162 (2017). https://doi.org/10.1038/sdata.2017.162",mp-11428
1571,GdPt2,-1.0364,0.0269,Fd-3m,"Kim, G., Meschel, S., Nash, P. et al. Experimental formation enthalpies for intermetallic phases and other inorganic compounds. Sci Data 4, 170162 (2017). https://doi.org/10.1038/sdata.2017.162",mp-1422
1572,Hf11Ni39,-0.4571,0.0155,C12/m1,"Kim, G., Meschel, S., Nash, P. et al. Experimental formation enthalpies for intermetallic phases and other inorganic compounds. Sci Data 4, 170162 (2017). https://doi.org/10.1038/sdata.2017.162",
1574,HfNi,-0.5006,0.0104,,"Kim, G., Meschel, S., Nash, P. et al. Experimental formation enthalpies for intermetallic phases and other inorganic compounds. Sci Data 4, 170162 (2017). https://doi.org/10.1038/sdata.2017.162",mp-1018056
1575,HfNi3,-0.4954,0.0145,P6_3/mmc,"Kim, G., Meschel, S., Nash, P. et al. Experimental formation enthalpies for intermetallic phases and other inorganic compounds. Sci Data 4, 170162 (2017). https://doi.org/10.1038/sdata.2017.162",mp-12174
1576,HfPt,-1.1784,0.0684,Cmcm,"Kim, G., Meschel, S., Nash, P. et al. Experimental formation enthalpies for intermetallic phases and other inorganic compounds. Sci Data 4, 170162 (2017). https://doi.org/10.1038/sdata.2017.162",mp-1007691
1578,HfPd3,-0.9172,0.0145,,"Kim, G., Meschel, S., Nash, P. et al. Experimental formation enthalpies for intermetallic phases and other inorganic compounds. Sci Data 4, 170162 (2017). https://doi.org/10.1038/sdata.2017.162",mp-11453
1579,HfPd,-0.7203,0.0176,,"Kim, G., Meschel, S., Nash, P. et al. Experimental formation enthalpies for intermetallic phases and other inorganic compounds. Sci Data 4, 170162 (2017). https://doi.org/10.1038/sdata.2017.162",
1581,HfRh,-0.9929,0.0228,Pm-3m,"Kim, G., Meschel, S., Nash, P. et al. Experimental formation enthalpies for intermetallic phases and other inorganic compounds. Sci Data 4, 170162 (2017). https://doi.org/10.1038/sdata.2017.162",mp-11457
1582,HfIr,-1.0022,0.0497,Pmma,"Kim, G., Meschel, S., Nash, P. et al. Experimental formation enthalpies for intermetallic phases and other inorganic compounds. Sci Data 4, 170162 (2017). https://doi.org/10.1038/sdata.2017.162",
1583,HoNi,-0.4322,0.0145,Pnma,"Kim, G., Meschel, S., Nash, P. et al. Experimental formation enthalpies for intermetallic phases and other inorganic compounds. Sci Data 4, 170162 (2017). https://doi.org/10.1038/sdata.2017.162",mp-11871
1584,Ho17Ni83,-0.3099,0.0083,P6/mmm,"Kim, G., Meschel, S., Nash, P. et al. Experimental formation enthalpies for intermetallic phases and other inorganic compounds. Sci Data 4, 170162 (2017). https://doi.org/10.1038/sdata.2017.162",
1585,HoRu2,-0.2778,0.0135,P6_3/mmc,"Kim, G., Meschel, S., Nash, P. et al. Experimental formation enthalpies for intermetallic phases and other inorganic compounds. Sci Data 4, 170162 (2017). https://doi.org/10.1038/sdata.2017.162",mp-1102089
1586,HoRh,-0.9038,0.0238,Pm-3m,"Kim, G., Meschel, S., Nash, P. et al. Experimental formation enthalpies for intermetallic phases and other inorganic compounds. Sci Data 4, 170162 (2017). https://doi.org/10.1038/sdata.2017.162",mp-2163
1587,HoRh2,-0.7296,0.0155,Fd-3m,"Kim, G., Meschel, S., Nash, P. et al. Experimental formation enthalpies for intermetallic phases and other inorganic compounds. Sci Data 4, 170162 (2017). https://doi.org/10.1038/sdata.2017.162",mp-546
1588,Ho3Rh2,-0.7607,0.0207,I4/mcm,"Kim, G., Meschel, S., Nash, P. et al. Experimental formation enthalpies for intermetallic phases and other inorganic compounds. Sci Data 4, 170162 (2017). https://doi.org/10.1038/sdata.2017.162",mp-1200753
1589,HoPd,-0.9483,0.0228,Pnma,"Kim, G., Meschel, S., Nash, P. et al. Experimental formation enthalpies for intermetallic phases and other inorganic compounds. Sci Data 4, 170162 (2017). https://doi.org/10.1038/sdata.2017.162",mp-1087502
1590,Ho43Pd57,-0.9763,0.0218,,"Kim, G., Meschel, S., Nash, P. et al. Experimental formation enthalpies for intermetallic phases and other inorganic compounds. Sci Data 4, 170162 (2017). https://doi.org/10.1038/sdata.2017.162",
1591,HoPd3,-0.9058,0.0238,Pm-3m,"Kim, G., Meschel, S., Nash, P. et al. Experimental formation enthalpies for intermetallic phases and other inorganic compounds. Sci Data 4, 170162 (2017). https://doi.org/10.1038/sdata.2017.162",mp-1979
1592,HoIr2,-0.7711,0.0207,Fd-3m,"Kim, G., Meschel, S., Nash, P. et al. Experimental formation enthalpies for intermetallic phases and other inorganic compounds. Sci Data 4, 170162 (2017). https://doi.org/10.1038/sdata.2017.162",mp-928
1593,HoPt,-1.2624,0.0529,Pnma,"Kim, G., Meschel, S., Nash, P. et al. Experimental formation enthalpies for intermetallic phases and other inorganic compounds. Sci Data 4, 170162 (2017). https://doi.org/10.1038/sdata.2017.162",mp-1079180
1594,HoPt2,-1.1048,0.0497,Fd-3m,"Kim, G., Meschel, S., Nash, P. et al. Experimental formation enthalpies for intermetallic phases and other inorganic compounds. Sci Data 4, 170162 (2017). https://doi.org/10.1038/sdata.2017.162",mp-2579
1595,HoPt3,-0.9877,0.0238,Pm-3m,"Kim, G., Meschel, S., Nash, P. et al. Experimental formation enthalpies for intermetallic phases and other inorganic compounds. Sci Data 4, 170162 (2017). https://doi.org/10.1038/sdata.2017.162",mp-195
1596,HoIr,-0.8364,0.0238,Pm-3m,"Kim, G., Meschel, S., Nash, P. et al. Experimental formation enthalpies for intermetallic phases and other inorganic compounds. Sci Data 4, 170162 (2017). https://doi.org/10.1038/sdata.2017.162",mp-11476
1597,LaIr2,-0.6519,0.0228,Fd-3m,"Kim, G., Meschel, S., Nash, P. et al. Experimental formation enthalpies for intermetallic phases and other inorganic compounds. Sci Data 4, 170162 (2017). https://doi.org/10.1038/sdata.2017.162",mp-1463
1598,LaIr3,-0.5151,0.0228,R-3m,"Kim, G., Meschel, S., Nash, P. et al. Experimental formation enthalpies for intermetallic phases and other inorganic compounds. Sci Data 4, 170162 (2017). https://doi.org/10.1038/sdata.2017.162",mp-1102848
1599,PrIr2,-0.7328,0.029,Fd-3m,"Kim, G., Meschel, S., Nash, P. et al. Experimental formation enthalpies for intermetallic phases and other inorganic compounds. Sci Data 4, 170162 (2017). https://doi.org/10.1038/sdata.2017.162",mp-946
1600,TbIr2,-0.7317,0.0269,Fd-3m,"Kim, G., Meschel, S., Nash, P. et al. Experimental formation enthalpies for intermetallic phases and other inorganic compounds. Sci Data 4, 170162 (2017). https://doi.org/10.1038/sdata.2017.162",mp-2725
1601,LuIr,-0.8861,0.0497,Pm-3m,"Kim, G., Meschel, S., Nash, P. et al. Experimental formation enthalpies for intermetallic phases and other inorganic compounds. Sci Data 4, 170162 (2017). https://doi.org/10.1038/sdata.2017.162",mp-1529
1602,LuIr2,-0.7359,0.0124,Fd-3m,"Kim, G., Meschel, S., Nash, P. et al. Experimental formation enthalpies for intermetallic phases and other inorganic compounds. Sci Data 4, 170162 (2017). https://doi.org/10.1038/sdata.2017.162",mp-1761
1603,YIr,-0.683,0.0394,Pm-3m,"Kim, G., Meschel, S., Nash, P. et al. Experimental formation enthalpies for intermetallic phases and other inorganic compounds. Sci Data 4, 170162 (2017). https://doi.org/10.1038/sdata.2017.162",mp-30746
1604,YIr2,-0.6156,0.029,Fd-3m,"Kim, G., Meschel, S., Nash, P. et al. Experimental formation enthalpies for intermetallic phases and other inorganic compounds. Sci Data 4, 170162 (2017). https://doi.org/10.1038/sdata.2017.162",mp-2762
1605,ZrIr,-0.8882,0.0404,Pm-3m,"Kim, G., Meschel, S., Nash, P. et al. Experimental formation enthalpies for intermetallic phases and other inorganic compounds. Sci Data 4, 170162 (2017). https://doi.org/10.1038/sdata.2017.162",mp-11484
1606,TiIr,-0.8737,0.0394,Pm-3m,"Kim, G., Meschel, S., Nash, P. et al. Experimental formation enthalpies for intermetallic phases and other inorganic compounds. Sci Data 4, 170162 (2017). https://doi.org/10.1038/sdata.2017.162",mp-12594
1607,La3Ni,-0.1358,0.0052,Pnma,"Kim, G., Meschel, S., Nash, P. et al. Experimental formation enthalpies for intermetallic phases and other inorganic compounds. Sci Data 4, 170162 (2017). https://doi.org/10.1038/sdata.2017.162",mp-1189497
1608,LaNi,-0.257,0.0114,Cmcm,"Kim, G., Meschel, S., Nash, P. et al. Experimental formation enthalpies for intermetallic phases and other inorganic compounds. Sci Data 4, 170162 (2017). https://doi.org/10.1038/sdata.2017.162",mp-1064719
1609,La17Ni83,-0.2726,0.0477,P6/mmm,"Kim, G., Meschel, S., Nash, P. et al. Experimental formation enthalpies for intermetallic phases and other inorganic compounds. Sci Data 4, 170162 (2017). https://doi.org/10.1038/sdata.2017.162",
1610,LaRu2,-0.1068,0.029,Fd-3m,"Kim, G., Meschel, S., Nash, P. et al. Experimental formation enthalpies for intermetallic phases and other inorganic compounds. Sci Data 4, 170162 (2017). https://doi.org/10.1038/sdata.2017.162",mp-2019
1611,LaRh,-0.5835,0.0238,Cmcm,"Kim, G., Meschel, S., Nash, P. et al. Experimental formation enthalpies for intermetallic phases and other inorganic compounds. Sci Data 4, 170162 (2017). https://doi.org/10.1038/sdata.2017.162",mp-1002107
1612,LaRh2,-0.5959,0.0176,Fd-3m,"Kim, G., Meschel, S., Nash, P. et al. Experimental formation enthalpies for intermetallic phases and other inorganic compounds. Sci Data 4, 170162 (2017). https://doi.org/10.1038/sdata.2017.162",mp-1702
1613,LaPd,-0.7898,0.0187,Cmcm,"Kim, G., Meschel, S., Nash, P. et al. Experimental formation enthalpies for intermetallic phases and other inorganic compounds. Sci Data 4, 170162 (2017). https://doi.org/10.1038/sdata.2017.162",mp-1002115
1614,LaPd3,-0.7991,0.0228,Pm-3m,"Kim, G., Meschel, S., Nash, P. et al. Experimental formation enthalpies for intermetallic phases and other inorganic compounds. Sci Data 4, 170162 (2017). https://doi.org/10.1038/sdata.2017.162",mp-674
1615,LaOs2,-0.0933,0.0114,P6_3/mmc,"Kim, G., Meschel, S., Nash, P. et al. Experimental formation enthalpies for intermetallic phases and other inorganic compounds. Sci Data 4, 170162 (2017). https://doi.org/10.1038/sdata.2017.162",mp-1102043
1616,LaPt2,-0.9328,0.0301,Fd-3m,"Kim, G., Meschel, S., Nash, P. et al. Experimental formation enthalpies for intermetallic phases and other inorganic compounds. Sci Data 4, 170162 (2017). https://doi.org/10.1038/sdata.2017.162",mp-912
1618,LaPt,-1.0333,0.0301,Cmcm,"Kim, G., Meschel, S., Nash, P. et al. Experimental formation enthalpies for intermetallic phases and other inorganic compounds. Sci Data 4, 170162 (2017). https://doi.org/10.1038/sdata.2017.162",mp-1002104
1619,LuNi,-0.4902,0.0228,Pnma,"Kim, G., Meschel, S., Nash, P. et al. Experimental formation enthalpies for intermetallic phases and other inorganic compounds. Sci Data 4, 170162 (2017). https://doi.org/10.1038/sdata.2017.162",mp-1078899
1620,Lu17Ni83,-0.3109,0.0083,P6/mmm,"Kim, G., Meschel, S., Nash, P. et al. Experimental formation enthalpies for intermetallic phases and other inorganic compounds. Sci Data 4, 170162 (2017). https://doi.org/10.1038/sdata.2017.162",
1621,LuRh2,-0.7058,0.0332,Fd-3m,"Kim, G., Meschel, S., Nash, P. et al. Experimental formation enthalpies for intermetallic phases and other inorganic compounds. Sci Data 4, 170162 (2017). https://doi.org/10.1038/sdata.2017.162",mp-1728
1622,Lu3Rh2,-0.6084,0.0197,,"Kim, G., Meschel, S., Nash, P. et al. Experimental formation enthalpies for intermetallic phases and other inorganic compounds. Sci Data 4, 170162 (2017). https://doi.org/10.1038/sdata.2017.162",
1624,LuPd,-0.9846,0.0145,Pm-3m,"Kim, G., Meschel, S., Nash, P. et al. Experimental formation enthalpies for intermetallic phases and other inorganic compounds. Sci Data 4, 170162 (2017). https://doi.org/10.1038/sdata.2017.162",mp-2205
1625,LuPd3,-0.9193,0.028,Pm-3m,"Kim, G., Meschel, S., Nash, P. et al. Experimental formation enthalpies for intermetallic phases and other inorganic compounds. Sci Data 4, 170162 (2017). https://doi.org/10.1038/sdata.2017.162",mp-1158
1627,LuPt,-1.2271,0.0228,Pnma,"Kim, G., Meschel, S., Nash, P. et al. Experimental formation enthalpies for intermetallic phases and other inorganic compounds. Sci Data 4, 170162 (2017). https://doi.org/10.1038/sdata.2017.162",mp-1025438
1628,LuPt3,-0.9245,0.0238,Pm-3m,"Kim, G., Meschel, S., Nash, P. et al. Experimental formation enthalpies for intermetallic phases and other inorganic compounds. Sci Data 4, 170162 (2017). https://doi.org/10.1038/sdata.2017.162",mp-790
1630,Lu43Pd57,-1.0198,0.0228,,"Kim, G., Meschel, S., Nash, P. et al. Experimental formation enthalpies for intermetallic phases and other inorganic compounds. Sci Data 4, 170162 (2017). https://doi.org/10.1038/sdata.2017.162",
1631,NbPt3,-0.483,0.0383,P2_1/m,"Kim, G., Meschel, S., Nash, P. et al. Experimental formation enthalpies for intermetallic phases and other inorganic compounds. Sci Data 4, 170162 (2017). https://doi.org/10.1038/sdata.2017.162",mp-12700
1632,NdNi,-0.2591,0.0155,Cmcm,"Kim, G., Meschel, S., Nash, P. et al. Experimental formation enthalpies for intermetallic phases and other inorganic compounds. Sci Data 4, 170162 (2017). https://doi.org/10.1038/sdata.2017.162",mp-999339
1633,Nd17Ni83,-0.2715,0.0114,P6/mmm,"Kim, G., Meschel, S., Nash, P. et al. Experimental formation enthalpies for intermetallic phases and other inorganic compounds. Sci Data 4, 170162 (2017). https://doi.org/10.1038/sdata.2017.162",
1634,NdRu2,-0.1948,0.0124,Fd-3m,"Kim, G., Meschel, S., Nash, P. et al. Experimental formation enthalpies for intermetallic phases and other inorganic compounds. Sci Data 4, 170162 (2017). https://doi.org/10.1038/sdata.2017.162",mp-1781
1635,Nd71Ru29,-0.1783,0.0197,C12/c1,"Kim, G., Meschel, S., Nash, P. et al. Experimental formation enthalpies for intermetallic phases and other inorganic compounds. Sci Data 4, 170162 (2017). https://doi.org/10.1038/sdata.2017.162",
1636,NdRh,-0.6654,0.0207,Cmcm,"Kim, G., Meschel, S., Nash, P. et al. Experimental formation enthalpies for intermetallic phases and other inorganic compounds. Sci Data 4, 170162 (2017). https://doi.org/10.1038/sdata.2017.162",mp-999335
1637,NdRh2,-0.6208,0.0114,Fd-3m,"Kim, G., Meschel, S., Nash, P. et al. Experimental formation enthalpies for intermetallic phases and other inorganic compounds. Sci Data 4, 170162 (2017). https://doi.org/10.1038/sdata.2017.162",mp-2290
1638,NdRh3,-0.4602,0.0166,P6_3/mmc,"Kim, G., Meschel, S., Nash, P. et al. Experimental formation enthalpies for intermetallic phases and other inorganic compounds. Sci Data 4, 170162 (2017). https://doi.org/10.1038/sdata.2017.162",mp-864699
1639,Nd14Rh11,-0.6208,0.0259,Pnma,"Kim, G., Meschel, S., Nash, P. et al. Experimental formation enthalpies for intermetallic phases and other inorganic compounds. Sci Data 4, 170162 (2017). https://doi.org/10.1038/sdata.2017.162",
1640,NdPd,-0.8001,0.028,Cmcm,"Kim, G., Meschel, S., Nash, P. et al. Experimental formation enthalpies for intermetallic phases and other inorganic compounds. Sci Data 4, 170162 (2017). https://doi.org/10.1038/sdata.2017.162",mp-999336
1641,NdPd3,-0.7597,0.0238,Pm-3m,"Kim, G., Meschel, S., Nash, P. et al. Experimental formation enthalpies for intermetallic phases and other inorganic compounds. Sci Data 4, 170162 (2017). https://doi.org/10.1038/sdata.2017.162",mp-2333
1642,NdIr2,-0.7006,0.0155,Fd-3m,"Kim, G., Meschel, S., Nash, P. et al. Experimental formation enthalpies for intermetallic phases and other inorganic compounds. Sci Data 4, 170162 (2017). https://doi.org/10.1038/sdata.2017.162",mp-890
1643,Nd5Ir3,-0.6187,0.028,P4/ncc,"Kim, G., Meschel, S., Nash, P. et al. Experimental formation enthalpies for intermetallic phases and other inorganic compounds. Sci Data 4, 170162 (2017). https://doi.org/10.1038/sdata.2017.162",mp-30522
1644,NdPt,-1.082,0.0269,Pnma,"Kim, G., Meschel, S., Nash, P. et al. Experimental formation enthalpies for intermetallic phases and other inorganic compounds. Sci Data 4, 170162 (2017). https://doi.org/10.1038/sdata.2017.162",mp-1080485
1645,NdPt2,-1.0147,0.0249,Fd-3m,"Kim, G., Meschel, S., Nash, P. et al. Experimental formation enthalpies for intermetallic phases and other inorganic compounds. Sci Data 4, 170162 (2017). https://doi.org/10.1038/sdata.2017.162",mp-2720
1646,Nd17Pt83,-0.57,0.0321,P6/mmm,"Kim, G., Meschel, S., Nash, P. et al. Experimental formation enthalpies for intermetallic phases and other inorganic compounds. Sci Data 4, 170162 (2017). https://doi.org/10.1038/sdata.2017.162",
1647,NiPt,-0.0406,0.0251,Fm-3m,"Kim, G., Meschel, S., Nash, P. et al. Experimental formation enthalpies for intermetallic phases and other inorganic compounds. Sci Data 4, 170162 (2017). https://doi.org/10.1038/sdata.2017.162",mp-945
1649,PrNi,-0.2912,0.0114,Cmcm,"Kim, G., Meschel, S., Nash, P. et al. Experimental formation enthalpies for intermetallic phases and other inorganic compounds. Sci Data 4, 170162 (2017). https://doi.org/10.1038/sdata.2017.162",mp-11799
1650,Pr17Ni83,-0.2653,0.0104,P6/mmm,"Kim, G., Meschel, S., Nash, P. et al. Experimental formation enthalpies for intermetallic phases and other inorganic compounds. Sci Data 4, 170162 (2017). https://doi.org/10.1038/sdata.2017.162",